G1.5-PAMAM in water
36442
    1aaa     N1    1   4.799   1.950   3.124  0.2976  0.2671  0.2455
    1aaa     C1    2   4.677   1.904   3.061  0.7342  0.1032  0.2372
    1aaa     C2    3   4.626   1.959   2.927  0.1486  0.6409 -0.0867
    1aaa     N2    4   4.497   1.888   2.881  0.1531 -0.7410  0.4645
    1aaa     C3    5   4.445   1.948   2.747 -0.1311 -0.3775 -1.0915
    1aaa     C4    6   4.385   1.899   2.987  0.3126  0.0063 -0.3156
    1aaa     C5    7   4.782   2.095   3.158  0.3305 -0.4724  0.7203
    1aaa     C6    8   4.910   1.943   3.024 -0.2129  0.2454  0.4744
    1aaa     C7    9   4.274   1.791   2.969  0.4529 -0.1853 -0.1676
    1aaa     C8   10   4.176   1.793   3.090  0.1511 -0.1541 -0.2103
    1aaa     C9   11   4.503   1.892   2.619  0.4582  0.2935  0.0596
    1aaa    C10   12   4.439   1.761   2.584 -0.0964 -0.1889 -0.6649
    1aaa    C11   13   4.680   2.121   3.272  0.2775 -0.0316 -0.4252
    1aaa    C12   14   4.682   2.259   3.339 -0.3371  0.1847 -0.0822
    1aaa    C13   15   5.047   1.906   3.087 -0.0927  0.1305 -1.0272
    1aaa    C14   16   5.167   1.935   3.000  0.2272 -0.0365  0.0593
    1aaa     O1   17   4.352   1.715   2.652  0.2476  0.6685  0.0786
    1aaa     O2   18   4.193   1.877   3.176  0.1616 -0.1124 -0.0435
    1aaa     O3   19   5.210   2.047   2.978 -0.1715 -0.4113 -0.2858
    1aaa     O4   20   4.774   2.335   3.312  0.2663  0.1242  0.7171
    1aaa     H1   21   4.595   1.912   3.133  0.1252 -1.8477 -0.1816
    1aaa     H2   22   4.695   1.798   3.046  1.0371  0.2128 -0.2003
    1aaa     H3   23   4.705   1.947   2.852  0.7910 -0.5483  0.7476
    1aaa     H4   24   4.605   2.066   2.934 -0.8049  0.3229  3.0506
    1aaa     H5   25   4.456   2.056   2.758 -1.3000 -0.3427 -0.1091
    1aaa     H6   26   4.337   1.931   2.752 -0.2245  0.5729  1.4933
    1aaa     H7   27   4.432   1.884   3.085 -2.7744 -1.4850  1.0659
    1aaa     H8   28   4.348   2.000   2.972 -0.9794 -0.3168  0.5176
    1aaa     H9   29   4.877   2.144   3.180  1.6336  0.4381 -5.3188
    1aaa    H10   30   4.743   2.152   3.074  0.8708  0.7838  1.2908
    1aaa    H11   31   4.886   1.873   2.943 -0.8399  2.0671 -0.9887
    1aaa    H12   32   4.923   2.040   2.975 -1.7823 -1.0490 -2.8267
    1aaa    H13   33   4.224   1.810   2.873 -0.4539  4.8787  1.0125
    1aaa    H14   34   4.312   1.689   2.956 -0.2264 -0.4546 -0.0935
    1aaa    H15   35   4.612   1.877   2.625  0.2447 -0.9130  1.1961
    1aaa    H16   36   4.467   1.961   2.542 -1.1468  1.3828  1.6984
    1aaa    H17   37   4.577   2.100   3.238 -0.1645 -0.2417  0.9652
    1aaa    H18   38   4.691   2.048   3.353  0.2807 -0.1864 -0.5652
    1aaa    H19   39   5.061   1.959   3.181  3.3935 -1.0628 -0.7355
    1aaa    H20   40   5.043   1.803   3.124 -0.6243  0.7147  0.6124
    1aaa    H37   41   4.830   1.893   3.204 -1.1134 -1.9192 -0.6777
    1aaa    H38   42   4.530   1.791   2.870  1.8296 -0.2539  0.8620
    2bbb     N1   43   3.951   1.466   3.268 -0.3695 -0.2442  0.1160
    2bbb     C1   44   3.810   1.449   3.206  0.0022 -1.0456  0.2300
    2bbb     C2   45   3.971   1.379   3.383  0.3354  0.0098 -0.4650
    2bbb     C3   46   3.775   1.330   3.124  0.0883  0.2151  0.1131
    2bbb     C4   47   3.627   1.339   3.083 -0.2438  0.4447 -0.0238
    2bbb     C5   48   4.112   1.376   3.457  0.0012  0.4009  0.1462
    2bbb     C6   49   4.128   1.292   3.587  0.6805  0.1188 -0.4305
    2bbb     C7   50   3.964   1.619   3.305  0.5691 -0.0751 -0.0370
    2bbb     C8   51   3.956   1.721   3.187 -0.3170 -0.0342  0.2743
    2bbb     N2   52   4.071   1.699   3.094 -0.3741 -0.4252 -0.4318
    2bbb     O1   53   3.540   1.371   3.157  0.0301  0.3582 -0.3839
    2bbb     O2   54   4.027   1.247   3.641  1.0938  0.1269  0.3337
    2bbb     H1   55   3.744   1.449   3.293 -0.1622  0.1253  0.1223
    2bbb     H2   56   3.786   1.539   3.149  1.3764  1.3669  3.1527
    2bbb     H3   57   3.935   1.283   3.345 -0.8648  1.1669 -2.3721
    2bbb     H4   58   3.894   1.409   3.454 -0.1150 -1.9394 -0.0714
    2bbb     H5   59   3.838   1.308   3.037  1.4666 -2.2483  1.6334
    2bbb     H6   60   3.786   1.232   3.171 -0.3009 -1.0120 -2.1976
    2bbb     H7   61   4.143   1.478   3.483 -0.5428  0.7002 -0.3474
    2bbb     H8   62   4.187   1.331   3.391  0.5069  1.8075 -0.2918
    2bbb     H9   63   4.066   1.617   3.344  1.0135  0.1676 -1.1493
    2bbb    H10   64   3.886   1.631   3.380  1.5608 -0.5253  1.1015
    2bbb    H11   65   3.948   1.827   3.215 -0.1276 -0.1381  0.7194
    2bbb    H12   66   3.860   1.712   3.135 -0.0754  2.0330 -0.6625
    2bbb    H13   67   4.066   1.632   3.018 -0.8170 -0.9267  0.0363
    2bbb    H25   68   4.016   1.430   3.197 -0.2794  0.8538 -0.3834
    3bbb     N1   69   4.584   1.367   2.321 -0.0511  0.2884  0.5305
    3bbb     C1   70   4.624   1.271   2.437  0.3009 -0.5037 -0.3268
    3bbb     C2   71   4.662   1.331   2.194 -0.0195  0.3258  0.0053
    3bbb     C3   72   4.576   1.130   2.418 -0.6839  0.2412  0.9423
    3bbb     C4   73   4.682   1.025   2.406  0.3634  0.3155 -0.0443
    3bbb     C5   74   4.612   1.390   2.054 -0.4844  0.0377  0.1994
    3bbb     C6   75   4.644   1.293   1.939  1.0609  0.0228  0.2695
    3bbb     C7   76   4.604   1.509   2.370  0.3923  0.5962 -0.3059
    3bbb     C8   77   4.488   1.554   2.454 -0.6375 -0.2312 -0.7875
    3bbb     N2   78   4.493   1.698   2.476 -0.1695  0.5632  0.1487
    3bbb     O1   79   4.775   1.043   2.327 -0.9271  0.3338  0.3277
    3bbb     O2   80   4.754   1.254   1.914  0.0642  0.0375  0.2074
    3bbb     H1   81   4.733   1.277   2.442  0.2919 -1.1027  0.7245
    3bbb     H2   82   4.583   1.320   2.526  4.2387  1.9753  0.3712
    3bbb     H3   83   4.658   1.223   2.181 -0.4126  0.2614  0.6056
    3bbb     H4   84   4.768   1.351   2.209  0.7377 -0.8768 -3.1584
    3bbb     H5   85   4.521   1.108   2.511 -3.0215  3.2919  0.4522
    3bbb     H6   86   4.503   1.114   2.337  1.5366 -2.7509 -0.6509
    3bbb     H7   87   4.676   1.476   2.027 -2.7896  1.5683 -0.6906
    3bbb     H8   88   4.506   1.417   2.064 -0.2809  0.2586  2.2534
    3bbb     H9   89   4.601   1.569   2.279  2.6905  0.2829 -0.6405
    3bbb    H10   90   4.704   1.512   2.413  1.0091 -0.2319 -1.6031
    3bbb    H11   91   4.494   1.514   2.556  0.5949  3.6180  0.8378
    3bbb    H12   92   4.390   1.531   2.410 -0.7656 -2.4970  0.5498
    3bbb    H13   93   4.572   1.745   2.433  1.3691 -1.0697  1.0447
    3bbb    H25   94   4.486   1.343   2.298  0.8755 -2.6166 -0.9013
    4bbb     N1   95   4.419   2.457   3.716  0.4095 -0.3598 -0.3850
    4bbb     C1   96   4.499   2.581   3.742  0.7632 -0.2542  0.2655
    4bbb     C2   97   4.367   2.412   3.849  0.1098 -0.0610  0.4906
    4bbb     C3   98   4.420   2.710   3.779  0.3818  0.0866  0.0543
    4bbb     C4   99   4.334   2.761   3.667  0.3095 -0.1328  0.3257
    4bbb     C5  100   4.300   2.286   3.856  0.4936  0.0547 -0.4492
    4bbb     C6  101   4.224   2.265   3.985  0.2903  0.3442 -0.4495
    4bbb     C7  102   4.506   2.354   3.646 -0.1197  0.5409 -0.2444
    4bbb     C8  103   4.564   2.399   3.516 -0.3106 -0.3124  0.7552
    4bbb     N2  104   4.567   2.290   3.415  0.3903 -0.5159  0.2412
    4bbb     O1  105   4.348   2.723   3.547  0.1481  0.5614 -0.1885
    4bbb     O2  106   4.171   2.350   4.043  0.1788 -0.6637  0.6354
    4bbb     H1  107   4.570   2.558   3.822  0.1291 -1.9045  0.3808
    4bbb     H2  108   4.562   2.599   3.655  0.6833  1.7422  0.5627
    4bbb     H3  109   4.300   2.492   3.882  2.1251  1.7979  0.3560
    4bbb     H4  110   4.449   2.428   3.920  2.2327  2.8035 -2.3226
    4bbb     H5  111   4.374   2.708   3.879  2.1410 -0.8879  0.8845
    4bbb     H6  112   4.494   2.788   3.798 -1.2349  1.7305 -0.1158
    4bbb     H7  113   4.380   2.213   3.836  1.3988  1.6035 -2.9109
    4bbb     H8  114   4.222   2.277   3.779 -1.0336  1.2135  0.8991
    4bbb     H9  115   4.449   2.263   3.629 -0.6584  0.7036  0.6128
    4bbb    H10  116   4.590   2.327   3.710 -1.8363 -0.0837  1.8833
    4bbb    H11  117   4.668   2.432   3.526 -0.3365 -0.0800  0.2756
    4bbb    H12  118   4.500   2.472   3.465  0.3516 -1.5072 -1.9576
    4bbb    H13  119   4.491   2.224   3.408  0.2529 -0.1896 -2.4868
    4bbb    H25  120   4.334   2.479   3.662 -0.5786 -2.2459  0.3111
    5bbb     N1  121   5.505   1.647   2.745 -0.2644  0.0199 -0.1740
    5bbb     C1  122   5.599   1.633   2.872  0.1235  0.2335  0.4558
    5bbb     C2  123   5.563   1.757   2.658  0.4295  0.0047 -0.3359
    5bbb     C3  124   5.561   1.528   2.985  0.5935 -0.1278  0.0047
    5bbb     C4  125   5.627   1.558   3.124 -0.1376 -0.2100  0.3347
    5bbb     C5  126   5.519   1.774   2.512  0.3494 -0.8936  0.6280
    5bbb     C6  127   5.615   1.862   2.430  0.0572  0.6479 -0.3048
    5bbb     C7  128   5.361   1.685   2.790  0.2759 -0.6891 -0.2821
    5bbb     C8  129   5.338   1.821   2.870  0.4741 -0.4662 -0.1428
    5bbb     N2  130   5.212   1.821   2.933  0.2079 -0.4412 -0.0856
    5bbb     O1  131   5.589   1.655   3.191 -0.4828 -0.1281 -0.2100
    5bbb     O2  132   5.717   1.910   2.483  0.2610  0.2188  0.0115
    5bbb     H1  133   5.704   1.622   2.844  0.4570 -0.9499  2.0639
    5bbb     H2  134   5.595   1.730   2.921  3.1268  0.6917 -0.0224
    5bbb     H3  135   5.666   1.727   2.639  0.3644 -0.1028 -0.5222
    5bbb     H4  136   5.577   1.855   2.705  1.1957  0.5876 -1.7339
    5bbb     H5  137   5.452   1.522   2.996  0.6569 -1.0789  0.2466
    5bbb     H6  138   5.596   1.429   2.952  2.2020  0.3068  0.3433
    5bbb     H7  139   5.419   1.815   2.493  0.3640 -1.4662 -0.8574
    5bbb     H8  140   5.516   1.678   2.459 -0.4692 -0.6434  0.2061
    5bbb     H9  141   5.335   1.608   2.862 -0.1674 -0.5120 -0.2504
    5bbb    H10  142   5.301   1.677   2.699 -0.1793  0.7936 -0.1441
    5bbb    H11  143   5.331   1.906   2.801 -2.5397 -0.7007 -0.2643
    5bbb    H12  144   5.418   1.834   2.944 -1.8281 -0.2915  2.4637
    5bbb    H13  145   5.146   1.744   2.939 -0.5485  0.2506  0.5727
    5bbb    H25  146   5.506   1.557   2.695 -0.3899  0.8555 -1.7245
    6bbb     N1  147   3.361   1.524   2.914  0.2459  0.5619  0.2512
    6bbb     C1  148   3.228   1.592   2.877 -0.0604  1.1525 -0.0750
    6bbb     C2  149   3.474   1.624   2.910  0.2524 -0.9583  0.4105
    6bbb     C3  150   3.104   1.515   2.921 -0.0249 -0.5634 -0.3038
    6bbb     C4  151   3.079   1.508   3.073 -0.5711 -0.0855  0.0313
    6bbb     C5  152   3.481   1.740   3.014 -0.9178 -0.4101  0.0807
    6bbb     C6  153   3.506   1.696   3.161 -0.7191  0.4077  0.0996
    6bbb     C7  154   3.388   1.406   2.828  0.3322 -0.1062 -0.1848
    6bbb     C8  155   3.460   1.286   2.906  0.0120 -0.0518  0.2883
    6bbb     N2  156   3.601   1.313   2.954 -0.6223  0.7368 -0.1236
    6bbb     O1  157   3.174   1.514   3.149  0.2488  0.4891  0.1018
    6bbb     O2  158   3.619   1.684   3.206 -0.1491 -0.4159  0.1480
    6bbb     H1  159   3.229   1.688   2.928 -0.6640  0.7782  0.6509
    6bbb     H2  160   3.222   1.597   2.768 -2.9108  0.4578 -0.0329
    6bbb     H3  161   3.467   1.662   2.808 -0.9349 -1.6035  0.2302
    6bbb     H4  162   3.566   1.567   2.914  1.0270  0.1613 -0.6753
    6bbb     H5  163   3.027   1.586   2.889 -2.2342 -0.5400  4.2646
    6bbb     H6  164   3.093   1.416   2.874  1.3006 -2.2197  2.6028
    6bbb     H7  165   3.392   1.802   3.003 -0.5801  0.1669  0.5544
    6bbb     H8  166   3.569   1.800   2.989 -1.9420  1.4231  0.7045
    6bbb     H9  167   3.459   1.438   2.752  1.8263 -0.2558  1.0836
    6bbb    H10  168   3.292   1.373   2.789  0.6494 -0.9619 -0.2621
    6bbb    H11  169   3.476   1.205   2.834  1.0008 -0.0528  0.4990
    6bbb    H12  170   3.396   1.248   2.987 -0.0908  0.2168  0.3348
    6bbb    H13  171   3.677   1.302   2.888  0.1731 -2.4991  1.1707
    6bbb    H25  172   3.356   1.486   3.010  0.5197 -0.0622  0.0169
    7bbb     N1  173   4.351   1.391   3.921  0.1455 -0.2771  0.2997
    7bbb     C1  174   4.463   1.446   4.008 -0.0106  0.2370 -0.6611
    7bbb     C2  175   4.218   1.371   3.998 -0.1752 -0.1430 -0.7398
    7bbb     C3  176   4.599   1.487   3.938  0.2135 -0.0933  0.3124
    7bbb     C4  177   4.699   1.549   4.027 -0.4176 -0.5169  0.0510
    7bbb     C5  178   4.228   1.284   4.126  0.4617  0.0745  0.2721
    7bbb     C6  179   4.097   1.280   4.213 -0.5445  0.7986 -0.3990
    7bbb     C7  180   4.377   1.260   3.859 -0.3600  0.5816 -0.0732
    7bbb     C8  181   4.272   1.199   3.757  0.1363 -0.6207 -0.0958
    7bbb     N2  182   4.248   1.275   3.635 -0.4234 -0.3620 -0.3821
    7bbb     O1  183   4.687   1.582   4.142  0.5996 -0.2583  0.5056
    7bbb     O2  184   4.075   1.363   4.297 -0.3569 -0.3022 -0.6442
    7bbb     H1  185   4.424   1.543   4.042  0.0688  0.3677 -0.9357
    7bbb     H2  186   4.478   1.372   4.086 -0.9637  0.6922 -0.0187
    7bbb     H3  187   4.150   1.322   3.929  0.7486  1.8905 -3.2397
    7bbb     H4  188   4.186   1.472   4.020  1.6365 -0.2189  3.0943
    7bbb     H5  189   4.646   1.399   3.892 -1.0070 -0.4105 -0.3937
    7bbb     H6  190   4.583   1.559   3.856  2.3227 -2.3657 -2.3068
    7bbb     H7  191   4.312   1.324   4.185  1.6010 -0.6920 -0.7820
    7bbb     H8  192   4.263   1.184   4.097 -1.4311 -0.3969 -0.5589
    7bbb     H9  193   4.404   1.182   3.932  0.0040 -0.3329 -1.1574
    7bbb    H10  194   4.466   1.277   3.799 -1.4333  0.2516 -1.8227
    7bbb    H11  195   4.182   1.181   3.818  0.2377 -1.7422 -0.2531
    7bbb    H12  196   4.318   1.105   3.725 -0.4330 -0.4552 -1.4457
    7bbb    H13  197   4.322   1.313   3.577 -1.1079 -1.1654 -1.8463
    7bbb    H25  198   4.334   1.461   3.848 -2.0956 -0.9400  0.1159
    8bbb     N1  199   4.958   0.655   2.390 -0.4211  0.0836  0.1295
    8bbb     C1  200   5.085   0.736   2.374 -0.0220  0.4801  0.1579
    8bbb     C2  201   4.953   0.548   2.282  0.2437 -0.4517  0.1305
    8bbb     C3  202   5.077   0.887   2.327 -0.2781 -0.2820 -0.7952
    8bbb     C4  203   5.043   0.895   2.174  0.6189 -0.3959 -0.3368
    8bbb     C5  204   5.080   0.469   2.258  0.0236 -0.3399  0.1855
    8bbb     C6  205   5.051   0.346   2.173 -0.1212  1.1164  0.3125
    8bbb     C7  206   4.829   0.732   2.389 -0.1325 -0.1548  0.2314
    8bbb     C8  207   4.802   0.828   2.504  0.4173  0.4395  0.1129
    8bbb     N2  208   4.679   0.910   2.486 -0.8855 -0.5254 -0.5210
    8bbb     O1  209   4.985   0.805   2.110  0.1251 -0.4709 -0.2083
    8bbb     O2  210   4.949   0.333   2.105  0.1960  0.9711 -0.2734
    8bbb     H1  211   5.117   0.742   2.479  2.0100  2.3763 -0.4705
    8bbb     H2  212   5.161   0.684   2.316  0.3024  0.9702  0.1312
    8bbb     H3  213   4.913   0.600   2.194  1.2812  0.8478  0.3943
    8bbb     H4  214   4.865   0.494   2.319 -0.3574  0.2932 -0.1813
    8bbb     H5  215   5.010   0.960   2.373  1.6742  3.0321 -2.7885
    8bbb     H6  216   5.172   0.940   2.342  0.3041 -1.0144 -1.7305
    8bbb     H7  217   5.125   0.440   2.354 -0.0465  0.7003  0.5520
    8bbb     H8  218   5.152   0.527   2.197  0.8271 -2.1806 -0.7104
    8bbb     H9  219   4.756   0.651   2.387  0.4484 -0.6884  0.2620
    8bbb    H10  220   4.818   0.781   2.293 -0.8499 -0.7369  0.0101
    8bbb    H11  221   4.885   0.899   2.519 -0.9718  2.9271 -2.8884
    8bbb    H12  222   4.788   0.766   2.594 -0.6236 -0.3318 -0.5594
    8bbb    H13  223   4.605   0.906   2.555 -1.6026  0.2620 -1.2236
    8bbb    H25  224   4.968   0.601   2.478  1.3643 -2.1890 -1.3499
    9bbb     N1  225   4.430   1.080   1.541 -0.2869  0.0400  0.0318
    9bbb     C1  226   4.525   1.138   1.445  0.0526  0.5215  0.7783
    9bbb     C2  227   4.284   1.058   1.479 -0.4465 -0.4516 -0.4417
    9bbb     C3  228   4.559   1.063   1.317 -0.3723 -1.4723 -0.3094
    9bbb     C4  229   4.606   0.917   1.346  0.9540 -0.2427  0.1064
    9bbb     C5  230   4.199   0.952   1.541  0.6012  0.1466  0.4992
    9bbb     C6  231   4.260   0.814   1.572  0.2921  0.8251 -0.2119
    9bbb     C7  232   4.426   1.164   1.667 -0.0446  0.1826 -0.4794
    9bbb     C8  233   4.543   1.148   1.764 -0.1378 -0.2082  0.2047
    9bbb     N2  234   4.534   1.246   1.871  0.4390 -0.3167 -0.3026
    9bbb     O1  235   4.648   0.883   1.454 -0.0860 -0.2363  0.0891
    9bbb     O2  236   4.380   0.794   1.586 -0.4610 -0.4716 -0.3609
    9bbb     H1  237   4.494   1.238   1.416 -1.1570 -0.4530 -1.5719
    9bbb     H2  238   4.609   1.156   1.512 -1.3510  1.6854  2.2979
    9bbb     H3  239   4.304   1.027   1.376 -0.6937  0.4800 -0.7783
    9bbb     H4  240   4.243   1.157   1.464  1.8933  0.8217  1.0080
    9bbb     H5  241   4.469   1.063   1.254 -1.5200  0.7950  1.2040
    9bbb     H6  242   4.635   1.115   1.257 -1.6968 -0.6489 -1.3418
    9bbb     H7  243   4.118   0.955   1.468  0.0090  0.0352  1.1481
    9bbb     H8  244   4.149   0.987   1.632 -0.7524  0.9590 -0.5300
    9bbb     H9  245   4.333   1.131   1.713  0.0471 -0.1233 -0.5102
    9bbb    H10  246   4.414   1.270   1.644  1.7468  0.5975  0.2895
    9bbb    H11  247   4.635   1.156   1.705  1.0694 -2.2454  1.6981
    9bbb    H12  248   4.557   1.052   1.816 -1.1778  0.9505  2.7581
    9bbb    H13  249   4.442   1.280   1.898  1.2318  0.1812  2.0094
    9bbb    H25  250   4.453   0.986   1.575 -2.2477  0.1208  1.8473
   10bbb     N1  251   4.171   3.144   3.800  0.1057  0.0345 -0.6211
   10bbb     C1  252   4.064   3.233   3.863  0.1427  0.8311  0.1770
   10bbb     C2  253   4.285   3.234   3.761  0.0831  0.2896  0.1708
   10bbb     C3  254   3.954   3.153   3.934 -0.4799  0.3536  0.4683
   10bbb     C4  255   3.853   3.245   4.010  0.1667 -0.1914 -0.5070
   10bbb     C5  256   4.383   3.260   3.882 -0.4869 -0.3056 -0.2139
   10bbb     C6  257   4.454   3.135   3.933  0.7840 -0.2050 -0.8129
   10bbb     C7  258   4.111   3.061   3.691  0.5697  0.4391  0.4882
   10bbb     C8  259   4.214   2.967   3.615  0.3596  0.0653 -0.6468
   10bbb     N2  260   4.261   2.867   3.708 -0.4581  0.2865  0.1283
   10bbb     O1  261   3.871   3.364   4.012 -0.0710  0.3941  0.0716
   10bbb     O2  262   4.412   3.021   3.922  0.3934  0.0220  0.2294
   10bbb     H1  263   4.107   3.300   3.937 -2.5790  0.6228  2.1077
   10bbb     H2  264   4.031   3.299   3.783  3.9796  1.2108 -1.3325
   10bbb     H3  265   4.250   3.323   3.707 -1.7981  1.3127  2.8518
   10bbb     H4  266   4.343   3.177   3.688 -0.9297  0.3719 -0.7314
   10bbb     H5  267   3.890   3.105   3.860 -0.6957  1.5476 -0.1431
   10bbb     H6  268   3.992   3.076   4.003 -0.3945  0.0980  0.1347
   10bbb     H7  269   4.335   3.314   3.966 -0.1241 -0.5293  0.1422
   10bbb     H8  270   4.464   3.324   3.845  0.2904 -1.5353 -0.6724
   10bbb     H9  271   4.055   3.132   3.630  0.4002  0.2420  0.4156
   10bbb    H10  272   4.045   2.996   3.748 -1.5798  3.6496  1.9929
   10bbb    H11  273   4.300   3.026   3.581  1.2262 -2.1069 -2.4465
   10bbb    H12  274   4.169   2.915   3.529 -0.0879  0.1102 -0.4441
   10bbb    H13  275   4.239   2.869   3.806  0.0629 -1.0457  0.2862
   10bbb    H25  276   4.209   3.080   3.871  0.3057  2.1748  1.3197
   11bbb     N1  277   4.079   1.950   4.332 -0.1736  0.0415 -0.5241
   11bbb     C1  278   4.177   1.837   4.304 -0.8832 -0.8365 -0.0428
   11bbb     C2  279   3.947   1.886   4.355  0.1025  0.2498 -0.5262
   11bbb     C3  280   4.193   1.718   4.405  0.0149 -0.2511 -0.5555
   11bbb     C4  281   4.296   1.613   4.350 -0.9778 -0.1216 -0.5437
   11bbb     C5  282   3.828   1.988   4.372  0.1495 -0.2663 -0.7953
   11bbb     C6  283   3.703   1.912   4.416  0.4061 -0.3200  0.4051
   11bbb     C7  284   4.084   2.032   4.209 -0.1365 -0.0079  0.5250
   11bbb     C8  285   4.210   2.115   4.193 -0.2737 -0.0595  0.7364
   11bbb     N2  286   4.234   2.142   4.050 -0.3475  0.2508 -0.2027
   11bbb     O1  287   4.312   1.590   4.230  0.2734 -0.2383 -0.5058
   11bbb     O2  288   3.682   1.803   4.366  0.2180 -0.0415 -0.3095
   11bbb     H1  289   4.160   1.795   4.204  0.0345 -0.0576 -0.5423
   11bbb     H2  290   4.272   1.890   4.292 -1.5130  1.8999  4.6287
   11bbb     H3  291   3.949   1.835   4.450 -0.3776 -1.5609 -1.4543
   11bbb     H4  292   3.929   1.805   4.284 -1.5252  0.4741 -0.3921
   11bbb     H5  293   4.213   1.748   4.508 -4.0709 -1.6481  0.8418
   11bbb     H6  294   4.099   1.663   4.401 -0.3155  0.2972 -0.3636
   11bbb     H7  295   3.799   2.031   4.275  0.1246  1.3565 -0.1064
   11bbb     H8  296   3.855   2.074   4.435 -1.0457 -0.8600  0.6048
   11bbb     H9  297   3.996   2.096   4.215 -0.3585 -0.4121  1.8893
   11bbb    H10  298   4.068   1.968   4.122  1.0267  0.9153 -0.3950
   11bbb    H11  299   4.300   2.061   4.225 -1.3798 -1.1737  2.1616
   11bbb    H12  300   4.199   2.213   4.240 -1.8636  1.7354 -2.9668
   11bbb    H13  301   4.270   2.067   3.992  1.6227 -0.6359  1.9760
   11bbb    H25  302   4.094   2.002   4.420 -0.7507 -0.9108  0.1616
   12bbb     N1  303   6.012   1.362   3.410  0.3878 -0.0733 -0.3229
   12bbb     C1  304   5.933   1.316   3.527  0.3257  0.1402 -0.0350
   12bbb     C2  305   6.083   1.488   3.443  0.2195  0.4529  0.2538
   12bbb     C3  306   6.024   1.286   3.652 -0.0121  0.1260  0.3364
   12bbb     C4  307   5.936   1.227   3.758  0.4971 -0.3413 -0.3940
   12bbb     C5  308   6.159   1.558   3.336 -0.7022  0.4271  0.0538
   12bbb     C6  309   6.225   1.688   3.387  0.1291  0.3758  0.6391
   12bbb     C7  310   5.923   1.366   3.286  0.1356 -0.4253  0.1837
   12bbb     C8  311   5.810   1.479   3.283 -0.6635 -0.0358 -0.0905
   12bbb     N2  312   5.731   1.473   3.159 -0.0591  0.0929  0.2729
   12bbb     O1  313   5.848   1.144   3.734 -0.8861 -0.0558 -0.1882
   12bbb     O2  314   6.196   1.735   3.494 -0.0516  0.6283 -0.2091
   12bbb     H1  315   5.864   1.397   3.554 -0.2828 -0.5665  0.5545
   12bbb     H2  316   5.889   1.224   3.490  1.2344  0.4319 -1.9641
   12bbb     H3  317   6.156   1.465   3.521 -0.4749  0.2549  0.8568
   12bbb     H4  318   6.017   1.563   3.488 -0.9443 -0.9700  1.0041
   12bbb     H5  319   6.101   1.216   3.621 -0.1209  0.1970 -0.0959
   12bbb     H6  320   6.065   1.379   3.695 -1.5236  0.0149  2.1737
   12bbb     H7  321   6.093   1.571   3.250 -1.3368 -1.8011  0.1276
   12bbb     H8  322   6.246   1.500   3.302 -1.1798 -0.0048 -0.4361
   12bbb     H9  323   5.877   1.268   3.276  2.9201 -1.8833  0.7540
   12bbb    H10  324   5.989   1.383   3.200  0.2298  1.3288  0.5633
   12bbb    H11  325   5.856   1.578   3.299  2.9740 -1.0881 -2.7198
   12bbb    H12  326   5.742   1.463   3.368 -1.1423 -0.9460 -0.6331
   12bbb    H13  327   5.758   1.404   3.090 -1.0381  0.1809 -0.2123
   12bbb    H25  328   6.076   1.282   3.400 -0.0904 -0.3682 -1.0582
   13bbb     N1  329   5.506   2.161   2.178 -0.6805  0.1581 -0.0570
   13bbb     C1  330   5.368   2.125   2.233  0.1159 -0.2843  0.2986
   13bbb     C2  331   5.494   2.279   2.085 -0.4031 -0.5704 -0.3072
   13bbb     C3  332   5.306   2.223   2.330 -0.4767 -0.4523  0.4417
   13bbb     C4  333   5.372   2.225   2.471 -0.3361  0.1843 -0.6662
   13bbb     C5  334   5.619   2.369   2.072  0.8419  0.1495  0.3465
   13bbb     C6  335   5.649   2.452   2.194  0.2657  0.5497 -0.4254
   13bbb     C7  336   5.572   2.043   2.107 -1.0142 -0.5369 -0.0536
   13bbb     C8  337   5.656   1.957   2.199 -0.0009  0.1857  0.0405
   13bbb     N2  338   5.587   1.871   2.294 -0.0948 -0.1965 -0.4204
   13bbb     O1  339   5.489   2.204   2.490  0.0220 -0.2769 -0.5487
   13bbb     O2  340   5.600   2.425   2.296  0.4576 -0.5024 -0.7639
   13bbb     H1  341   5.300   2.107   2.150 -0.2763 -1.6643  0.9050
   13bbb     H2  342   5.375   2.029   2.283  0.0659 -1.0995 -1.2138
   13bbb     H3  343   5.405   2.332   2.118 -0.5453 -0.8628 -0.2265
   13bbb     H4  344   5.466   2.244   1.986 -1.7496  0.7887 -0.4497
   13bbb     H5  345   5.306   2.326   2.291  0.9505 -0.1606  1.1192
   13bbb     H6  346   5.201   2.198   2.346 -0.8849  1.6331  1.3894
   13bbb     H7  347   5.605   2.437   1.986  0.2517  2.2257  2.0012
   13bbb     H8  348   5.703   2.301   2.053 -0.2395 -1.4500  1.1567
   13bbb     H9  349   5.631   2.086   2.026 -2.2395  0.5481 -0.4017
   13bbb    H10  350   5.487   1.992   2.062 -1.6161  1.2463 -1.0142
   13bbb    H11  351   5.722   2.028   2.249 -2.0903  1.3455  1.3016
   13bbb    H12  352   5.717   1.892   2.135 -0.6579  0.6046 -1.0412
   13bbb    H13  353   5.503   1.830   2.255 -0.0986 -0.1181 -0.4969
   13bbb    H25  354   5.562   2.191   2.258 -2.5135  0.5975  1.1276
   14ccc     N1  355   2.953   1.482   3.120 -0.4817  0.2654 -0.0314
   14ccc     H4  356   2.884   1.462   3.049  2.1429 -0.0101 -2.7503
   14ccc     C3  357   2.934   1.446   3.260 -0.7201  0.1224 -0.0534
   14ccc     H5  358   3.002   1.501   3.326 -2.8759  2.0770  0.6576
   14ccc     C4  359   2.939   1.290   3.278 -0.0448 -0.3552  1.1206
   14ccc     H6  360   2.828   1.458   3.285 -0.5112 -1.7861  1.9858
   14ccc     H7  361   2.860   1.254   3.210  0.0068  2.2239 -0.4367
   14ccc     H8  362   2.905   1.260   3.378  1.4954 -2.3027  1.1127
   14ccc     N2  363   3.070   1.221   3.243 -0.0234  0.2610 -0.4655
   14ccc     C5  364   3.059   1.075   3.210  0.0883 -0.2066  0.8068
   14ccc     C6  365   3.148   1.236   3.377  0.2655 -0.2773 -0.0084
   14ccc     H9  366   3.144   1.337   3.420  3.5283  0.7027 -1.6763
   14ccc     C7  367   3.295   1.219   3.347  0.1285  0.2040  0.1987
   14ccc    H10  368   3.108   1.167   3.452 -0.0311 -0.7167 -0.5517
   14ccc    H11  369   3.322   1.272   3.255 -0.3850 -0.8166 -0.5485
   14ccc    H12  370   3.317   1.114   3.325 -3.2856  0.1086 -3.9855
   14ccc     C8  371   3.382   1.283   3.469  0.8610  0.2593  0.9875
   14ccc     O2  372   3.333   1.353   3.557 -0.2057 -0.6221  0.2829
   14ccc    H13  373   3.009   1.018   3.289 -3.5588  3.1877  1.2459
   14ccc    H14  374   3.160   1.039   3.185 -0.2535  0.6639 -2.2285
   14ccc     C9  375   2.991   1.035   3.074  0.0090 -0.7064 -0.1326
   14ccc    H15  376   2.885   1.065   3.069  0.0505 -0.2370  1.3292
   14ccc    H16  377   3.004   0.928   3.060  0.1482 -0.8309  0.8981
   14ccc    C10  378   3.069   1.103   2.960 -0.2171 -0.4309  0.0280
   14ccc     O4  379   3.158   1.188   2.966  0.1228 -0.0203  0.2845
   14ccc    C11  380   3.683   1.361   3.854 -0.0614  0.2495 -0.6093
   14ccc    C12  381   3.673   1.206   3.823  0.5555 -0.3750 -0.3838
   14ccc    H17  382   3.594   1.400   3.906 -0.6574 -0.4466 -1.0822
   14ccc    C13  383   3.565   1.177   3.709  0.0912  0.6414 -0.3506
   14ccc    C14  384   3.598   1.270   3.592  0.4432 -0.7127  0.5472
   14ccc    C15  385   3.604   1.418   3.634 -0.0539  0.1860  0.0835
   14ccc    H18  386   3.702   1.251   3.561  0.6593 -0.6691  1.2257
   14ccc    H19  387   3.465   1.195   3.749 -2.3205  0.4019 -5.3844
   14ccc    H20  388   3.511   1.452   3.679 -1.1919 -0.1523 -1.8865
   14ccc     O1  389   3.636   1.504   3.527 -0.9443 -0.5284  0.2237
   14ccc     O6  390   3.581   1.041   3.669  0.0877 -0.6167  0.6349
   14ccc    C16  391   3.808   1.398   3.948  0.3787  0.4664 -1.0091
   14ccc    H21  392   3.669   1.034   3.627  0.7347 -0.9530  2.0007
   14ccc    H22  393   3.556   1.185   3.406  2.9047  2.2059 -1.7716
   14ccc    H23  394   3.795   1.357   4.049  0.0249  0.4079 -1.0781
   14ccc    H24  395   3.815   1.507   3.958 -1.0580  0.4634  0.5093
   14ccc     O7  396   3.928   1.337   3.900 -0.2510 -0.3657 -0.1929
   14ccc    H25  397   3.948   1.374   3.812  1.8406 -2.4843 -0.7175
   14ccc     O8  398   3.704   1.435   3.734 -0.2379  0.3162  0.2269
   14ccc    H26  399   3.677   1.583   3.567 -1.2937  0.6999 -1.6924
   14ccc    H27  400   3.768   1.167   3.787  1.1678  0.5276  0.2057
   14ccc     O9  401   3.616   1.140   3.940 -0.4438 -0.1672 -0.0865
   14ccc    H28  402   3.573   1.061   3.903  0.3025  0.5257 -2.6028
   14ccc     N3  403   3.510   1.251   3.468  0.1489 -0.3501 -0.8705
   14ccc    C17  404   2.753   0.860   2.581  0.5618  0.1614 -0.6282
   14ccc    C18  405   2.870   0.782   2.646 -0.0335 -0.0954  0.0061
   14ccc    H29  406   2.779   0.916   2.490 -1.9266  2.2811 -0.1353
   14ccc    C19  407   2.985   0.876   2.696 -0.5912 -0.2020 -0.0294
   14ccc    C20  408   2.923   0.996   2.780 -0.4865  0.1216 -0.0026
   14ccc    C21  409   2.819   1.067   2.698  0.2677 -0.2854  0.6280
   14ccc    H30  410   2.879   0.943   2.866  2.0807 -1.4549  0.4473
   14ccc    H31  411   3.034   0.926   2.611 -0.0933 -0.0421  0.3496
   14ccc    H32  412   2.857   1.113   2.606  1.5849  0.3091  1.4536
   14ccc    O10  413   2.758   1.165   2.776  0.1044  0.1162  0.0658
   14ccc    O11  414   3.082   0.806   2.782 -0.2261 -0.5381  0.6445
   14ccc    C22  415   2.625   0.776   2.540  0.2984 -0.0752  0.2695
   14ccc    H33  416   3.150   0.770   2.722  0.1366  1.7614 -0.4349
   14ccc    H34  417   3.073   1.128   2.753  0.1243  0.7150 -0.3202
   14ccc    H35  418   2.655   0.679   2.499 -1.3205  0.4970 -2.5144
   14ccc    H36  419   2.572   0.827   2.459  3.8331  1.8342 -1.0344
   14ccc    O12  420   2.541   0.742   2.651  1.0838  0.6410 -0.0210
   14ccc    H37  421   2.490   0.823   2.669 -0.6201 -0.2102 -0.7289
   14ccc    O13  422   2.715   0.968   2.672 -0.2647 -0.1013 -0.2268
   14ccc    H38  423   2.686   1.114   2.817  1.3604 -1.5499  0.2890
   14ccc    H39  424   2.824   0.727   2.729  0.9960 -0.4823  0.3353
   14ccc     O5  425   2.918   0.696   2.545  0.8697  0.4848 -0.3317
   14ccc    H40  426   2.997   0.657   2.587 -1.1065  0.0942  3.5214
   14ccc     N4  427   3.030   1.082   2.833  0.5135  0.2553 -0.3702
   14ccc    H41  428   3.113   1.271   3.164  1.1514  2.1486  1.2839
   15ccc     N1  429   3.389   1.688   3.239 -0.4901 -0.5217 -0.0542
   15ccc     H4  430   3.303   1.706   3.190 -0.3580  1.2467  0.3067
   15ccc     C3  431   3.385   1.646   3.388  0.6040  0.8117  0.8445
   15ccc     H5  432   3.362   1.539   3.398  0.6199  0.4976 -1.7424
   15ccc     C4  433   3.271   1.718   3.450  0.1112 -0.3205  0.1660
   15ccc     H6  434   3.482   1.680   3.427  1.4332  1.1938 -1.4244
   15ccc     H7  435   3.178   1.685   3.401 -0.2785  1.6896 -0.5782
   15ccc     H8  436   3.283   1.825   3.427  0.8040 -0.3422  0.3928
   15ccc     N2  437   3.256   1.707   3.601  0.0154  0.5962 -0.2120
   15ccc     C5  438   3.129   1.773   3.652 -0.1640  0.4157 -0.0375
   15ccc     C6  439   3.378   1.778   3.661 -0.5239  0.2980 -0.1458
   15ccc     H9  440   3.465   1.719   3.632  1.4352  2.8454  0.2230
   15ccc     C7  441   3.388   1.799   3.812  0.1495  0.6684  0.1316
   15ccc    H10  442   3.387   1.873   3.607 -2.6227  0.6042 -0.0720
   15ccc    H11  443   3.316   1.877   3.839 -0.4149 -0.1164  0.9844
   15ccc    H12  444   3.486   1.836   3.846  0.8984 -1.6013  0.6781
   15ccc     C8  445   3.361   1.666   3.884 -0.3224 -0.1062 -0.2774
   15ccc     O2  446   3.374   1.563   3.824  0.3305 -0.0326 -0.3935
   15ccc    H13  447   3.118   1.871   3.604 -1.8853  0.7690  0.9875
   15ccc    H14  448   3.133   1.785   3.761 -1.0940 -0.2068  0.0777
   15ccc     C9  449   2.994   1.709   3.618  0.3555 -0.2557  0.1362
   15ccc    H15  450   2.982   1.713   3.509  0.3735  2.6877  0.1570
   15ccc    H16  451   2.918   1.774   3.662 -0.4837 -0.6024 -0.7679
   15ccc    C10  452   2.978   1.564   3.665  0.2765  0.1447 -0.4729
   15ccc     O4  453   3.065   1.475   3.665 -0.0183 -0.2284  0.2018
   15ccc    C11  454   3.123   1.316   4.369 -0.7043  0.1395  0.9018
   15ccc    C12  455   3.120   1.272   4.169 -0.4709  1.0525  0.0281
   15ccc    H17  456   3.019   1.329   4.402 -0.9358 -1.5491  0.9558
   15ccc    C13  457   3.218   1.395   4.035 -0.0163 -0.7222 -1.1071
   15ccc    C14  458   3.313   1.558   4.106 -0.2629  0.8970 -0.1065
   15ccc    C15  459   3.313   1.594   4.308  0.4036 -0.3324 -0.0100
   15ccc    H18  460   3.415   1.520   4.091 -0.5743  0.0292 -0.0883
   15ccc    H19  461   3.145   1.426   3.959 -1.7721  0.6373  1.0187
   15ccc    H20  462   3.258   1.689   4.316  0.0255 -0.5187 -0.3724
   15ccc     O1  463   3.440   1.621   4.369  0.3707  0.1279  0.0822
   15ccc     O6  464   3.312   1.318   3.969 -0.2831 -0.3873  0.2170
   15ccc    C16  465   3.161   1.189   4.454  0.3713  0.3792 -0.0546
   15ccc    H21  466   3.322   1.369   3.886 -1.3116  0.4435  0.5739
   15ccc    H22  467   3.326   1.764   4.058 -0.1405  0.6400 -1.4705
   15ccc    H23  468   3.268   1.169   4.459  0.1434 -1.0867 -0.3962
   15ccc    H24  469   3.117   1.100   4.407 -1.0747  0.9113  0.2211
   15ccc     O7  470   3.108   1.203   4.588  0.0110 -0.1729  0.0119
   15ccc    H25  471   3.043   1.132   4.601 -0.5518  0.5184  1.1464
   15ccc     O8  472   3.222   1.469   4.423  0.1745 -0.0277 -0.1114
   15ccc    H26  473   3.447   1.546   4.431  0.0422 -0.4457 -0.5579
   15ccc    H27  474   3.179   1.181   4.150  0.4830  2.0952 -2.4726
   15ccc     O9  475   2.983   1.246   4.130 -0.0208  0.4155  0.2137
   15ccc    H28  476   2.947   1.184   4.195  0.3417  0.0348  0.0583
   15ccc     N3  477   3.328   1.670   4.017 -0.7256 -0.2684  0.4376
   15ccc    C17  478   2.441   1.554   3.643  0.0125 -0.1830 -0.7602
   15ccc    C18  479   2.494   1.586   3.788  0.6039 -0.5339  0.0914
   15ccc    H29  480   2.432   1.446   3.630  1.4307 -0.1845 -2.0685
   15ccc    C19  481   2.630   1.527   3.806  0.0513 -0.0153  0.4132
   15ccc    C20  482   2.726   1.577   3.687  0.0892 -0.4716 -0.2262
   15ccc    C21  483   2.658   1.547   3.554 -0.0256  0.2741 -0.2921
   15ccc    H30  484   2.733   1.686   3.691  0.6527 -0.4612 -1.1677
   15ccc    H31  485   2.618   1.418   3.816 -0.0567 -0.0402  0.0364
   15ccc    H32  486   2.637   1.440   3.542 -1.3032  0.4547  0.1792
   15ccc    O10  487   2.736   1.601   3.441  0.3645  0.3922 -0.5909
   15ccc    O11  488   2.686   1.563   3.929 -0.0843 -0.5306  0.0806
   15ccc    C22  489   2.305   1.616   3.623 -0.9803  0.3907  0.4791
   15ccc    H33  490   2.776   1.527   3.929 -1.2507 -3.8733  0.1807
   15ccc    H34  491   2.866   1.430   3.756 -1.0005 -0.3315 -0.2128
   15ccc    H35  492   2.236   1.577   3.699 -0.2626 -0.1309  0.8792
   15ccc    H36  493   2.269   1.590   3.523 -3.3426 -3.2533  2.0243
   15ccc    O12  494   2.321   1.758   3.632  0.5649  0.4380  0.0392
   15ccc    H37  495   2.367   1.786   3.551 -1.9629  0.4344 -1.5097
   15ccc    O13  496   2.533   1.612   3.553  0.3150 -0.2220 -0.1170
   15ccc    H38  497   2.721   1.697   3.448 -1.5960  0.0781  0.1417
   15ccc    H39  498   2.507   1.694   3.801  0.1239 -0.5175  0.4479
   15ccc     O5  499   2.407   1.553   3.890 -0.4996  0.3259 -0.1333
   15ccc    H40  500   2.465   1.519   3.960 -2.7780  2.6827  3.2992
   15ccc     N4  501   2.863   1.525   3.719 -0.4134 -0.1627  0.1571
   15ccc    H41  502   3.265   1.609   3.632  0.9330  1.2660  1.7551
   16ccc     N1  503   4.816   1.565   3.955 -0.2387 -0.3574  0.1885
   16ccc     H4  504   4.827   1.532   3.860 -2.5389  1.1664 -0.6816
   16ccc     C3  505   4.950   1.580   4.016 -0.0377 -1.1856 -0.6007
   16ccc     H5  506   4.942   1.522   4.109 -3.3943 -2.0430 -1.2759
   16ccc     C4  507   4.986   1.728   4.049  0.2295  0.1194 -0.3155
   16ccc     H6  508   5.031   1.535   3.957  2.7045  2.1353  0.3314
   16ccc     H7  509   4.916   1.743   4.133  1.1059 -1.9648  0.8619
   16ccc     H8  510   4.944   1.785   3.965 -1.9981 -1.1942 -0.1694
   16ccc     N2  511   5.145   1.776   4.060 -0.4141  0.7295  0.1220
   16ccc     C5  512   5.279   1.886   4.263  0.2322  0.1440 -0.3025
   16ccc     C6  513   5.176   1.758   3.892  0.4505 -0.2373 -0.3007
   16ccc     H9  514   5.278   1.723   3.870  0.2226 -0.8266 -0.4318
   16ccc     C7  515   5.135   1.848   3.769  0.5783  0.1239 -0.2959
   16ccc    H10  516   5.125   1.670   3.851  0.1886  1.4590 -4.0379
   16ccc    H11  517   5.080   1.938   3.800  0.4068  0.4459 -1.4604
   16ccc    H12  518   5.074   1.789   3.700 -0.9798  1.5162 -0.1868
   16ccc     C8  519   5.254   1.881   3.686  0.1920 -0.6868  0.9817
   16ccc     O2  520   5.313   1.806   3.613 -0.1764  0.7709 -0.5878
   16ccc    H13  521   5.226   1.897   4.359 -0.9337 -2.4440 -0.5669
   16ccc    H14  522   5.314   1.989   4.247 -0.3513 -0.0896 -3.9442
   16ccc     C9  523   5.418   1.864   4.331 -0.5394 -0.3457 -0.0567
   16ccc    H15  524   5.504   1.878   4.264  1.4165  1.5440  2.6055
   16ccc    H16  525   5.429   1.775   4.395  3.2513  1.9210  2.8734
   16ccc    C10  526   5.451   1.972   4.437 -0.4767 -0.3901 -0.0095
   16ccc     O4  527   5.371   2.048   4.482  0.2531 -0.2422  0.1393
   16ccc    C11  528   5.610   2.267   3.527  0.5287  0.3785  0.0089
   16ccc    C12  529   5.608   2.225   3.679 -0.3152 -0.0435  0.1566
   16ccc    H17  530   5.530   2.341   3.526 -1.3375 -1.5597  0.0184
   16ccc    C13  531   5.464   2.186   3.720 -0.1013  0.2222  0.1546
   16ccc    C14  532   5.420   2.062   3.639  0.8189  0.1065 -0.6409
   16ccc    C15  533   5.431   2.096   3.488 -0.5721  0.6430 -0.6898
   16ccc    H18  534   5.495   1.984   3.658  0.2313 -0.1764  0.5874
   16ccc    H19  535   5.388   2.262   3.696 -1.2053 -0.8471  0.1558
   16ccc    H20  536   5.341   2.153   3.463 -1.2425  0.1093  0.4511
   16ccc     O1  537   5.428   1.980   3.410 -0.4289 -0.1835 -0.4465
   16ccc     O6  538   5.454   2.163   3.860  0.3775 -0.0090 -0.6951
   16ccc    C16  539   5.737   2.317   3.457 -0.1401  0.5948  0.6814
   16ccc    H21  540   5.488   2.237   3.913  0.4744  0.2193 -1.0666
   16ccc    H22  541   5.248   2.084   3.744  2.3011  1.5327 -0.4123
   16ccc    H23  542   5.770   2.409   3.508  0.1879  0.2663  1.0645
   16ccc    H24  543   5.712   2.346   3.354  0.3298  0.5099  0.5455
   16ccc     O7  544   5.842   2.217   3.462 -0.2690  0.0701  0.0164
   16ccc    H25  545   5.917   2.251   3.410 -0.1126  1.2800  0.9921
   16ccc     O8  546   5.560   2.151   3.454 -0.1856  0.1908  0.3156
   16ccc    H26  547   5.451   2.013   3.321  1.6273  0.1447  0.1604
   16ccc    H27  548   5.678   2.141   3.688  1.7935  1.4195 -1.4692
   16ccc     O9  549   5.644   2.334   3.754 -0.5632  0.0262  0.2371
   16ccc    H28  550   5.585   2.409   3.736  0.9420  1.4843  1.1601
   16ccc     N3  551   5.287   2.010   3.686  0.0699 -0.1423  0.0826
   16ccc    C17  552   5.843   2.196   4.740 -0.5242  0.1034  0.3326
   16ccc    C18  553   5.740   2.279   4.663 -0.6140  0.0612  0.3153
   16ccc    H29  554   5.938   2.196   4.684  0.2705  1.5767  1.5862
   16ccc    C19  555   5.657   2.201   4.553 -0.1368  0.2502 -0.3414
   16ccc    C20  556   5.628   2.056   4.594  0.4080 -0.7076 -1.0717
   16ccc    C21  557   5.752   1.982   4.661  0.1992  0.3765  0.0706
   16ccc    H30  558   5.550   2.064   4.670  0.6946  0.0906 -0.8555
   16ccc    H31  559   5.715   2.200   4.460  1.4301  0.4905  0.5817
   16ccc    H32  560   5.822   1.964   4.578 -2.8865 -2.1470 -2.2408
   16ccc    O10  561   5.714   1.856   4.717 -0.1254  0.0908  0.2540
   16ccc    O11  562   5.548   2.276   4.518  0.3303  0.7815 -0.8382
   16ccc    C22  563   5.894   2.268   4.869 -0.2787 -0.2899  0.4668
   16ccc    H33  564   5.484   2.219   4.472 -2.5575  0.0921  3.4774
   16ccc    H34  565   5.649   1.925   4.428 -0.0092  0.2591  0.2958
   16ccc    H35  566   5.840   2.229   4.956 -1.8578 -0.7934 -0.6949
   16ccc    H36  567   5.872   2.376   4.865  1.7063  0.1571 -3.7336
   16ccc    O12  568   6.036   2.262   4.890  0.4182 -0.0232 -0.3110
   16ccc    H37  569   6.044   2.343   4.942 -1.2895  0.1101 -0.1954
   16ccc    O13  570   5.803   2.059   4.769  0.3772 -0.4374 -0.3994
   16ccc    H38  571   5.797   1.819   4.751  0.4235 -0.7236 -1.8155
   16ccc    H39  572   5.677   2.326   4.738  2.1382  2.1035  1.5112
   16ccc     O5  573   5.803   2.378   4.585  0.3577 -0.6268  0.6466
   16ccc    H40  574   5.734   2.410   4.525  0.6478  1.4112  1.3238
   16ccc     N4  575   5.577   1.977   4.478 -0.0271  0.2399  0.2906
   16ccc    H41  576   5.164   1.676   4.078 -2.0223  0.4488  0.4121
   17ccc     N1  577   4.011   1.170   4.199  0.1154 -1.0356 -0.1530
   17ccc     H4  578   4.032   1.106   4.122  0.3773 -0.7140 -0.3549
   17ccc     C3  579   3.892   1.164   4.277  0.3843  0.1919 -0.1518
   17ccc     H5  580   3.911   1.120   4.376  0.1402 -0.2004 -0.2768
   17ccc     C4  581   3.787   1.073   4.208 -0.4460 -0.2228  0.5829
   17ccc     H6  582   3.848   1.260   4.303  0.1401 -0.2528  1.1679
   17ccc     H7  583   3.844   0.983   4.184  1.8640  0.8336  1.8121
   17ccc     H8  584   3.753   1.130   4.121 -3.3722  1.6875  2.7472
   17ccc     N2  585   3.675   1.025   4.297 -0.4177  0.5383  0.6767
   17ccc     C5  586   3.591   0.911   4.235  0.1873 -0.0184 -0.0552
   17ccc     C6  587   3.583   1.133   4.347 -0.3415  0.5300  0.4010
   17ccc     H9  588   3.527   1.100   4.436 -0.7433  0.1205  0.0017
   17ccc     C7  589   3.480   1.205   4.254  0.0743 -0.1997 -0.4162
   17ccc    H10  590   3.651   1.209   4.388  0.0532 -0.6322  2.0100
   17ccc    H11  591   3.397   1.139   4.227 -1.0834  0.3634  1.5406
   17ccc    H12  592   3.520   1.233   4.156  0.6539 -0.2945 -0.2151
   17ccc     C8  593   3.420   1.326   4.326  0.6799  0.1752 -0.5208
   17ccc     O2  594   3.450   1.370   4.436 -0.6625  0.2178 -0.2323
   17ccc    H13  595   3.664   0.832   4.214  0.8121  0.7389 -0.8300
   17ccc    H14  596   3.555   0.946   4.137 -0.9524  1.5137  0.8653
   17ccc     C9  597   3.481   0.839   4.316 -0.0753  1.0579 -0.4478
   17ccc    H15  598   3.400   0.908   4.346 -0.9140  0.8248 -2.0925
   17ccc    H16  599   3.520   0.793   4.408 -2.7930 -1.4627 -0.4337
   17ccc    C10  600   3.430   0.721   4.245 -0.2583 -0.2867  0.3015
   17ccc     O4  601   3.463   0.604   4.260 -0.5402 -0.0051 -0.9457
   17ccc    C11  602   3.053   1.815   4.218  0.6439 -0.0660  0.3201
   17ccc    C12  603   2.977   1.739   4.110  0.4722  0.1728 -0.5263
   17ccc    H17  604   3.158   1.811   4.185  0.3757  1.5990 -0.9155
   17ccc    C13  605   3.036   1.589   4.088  0.0146 -0.4561 -0.0245
   17ccc    C14  606   3.109   1.507   4.221  0.3672 -0.3052 -0.3391
   17ccc    C15  607   3.027   1.598   4.343 -0.9084  0.0016 -0.0065
   17ccc    H18  608   3.017   1.447   4.221  1.3932 -2.0286  1.7238
   17ccc    H19  609   3.109   1.601   4.008  2.6350  1.1406  2.3929
   17ccc    H20  610   3.040   1.571   4.449 -3.5352  0.1297  0.4140
   17ccc     O1  611   2.889   1.568   4.335  0.1727  0.1625 -0.5733
   17ccc     O6  612   2.932   1.503   4.027 -0.0901  0.2614  0.4092
   17ccc    C16  613   3.009   1.966   4.238  0.4781  0.2334  0.3182
   17ccc    H21  614   2.943   1.408   4.048 -0.4337 -0.2810 -1.6400
   17ccc    H22  615   3.320   1.311   4.163 -1.1074 -2.2824  0.5215
   17ccc    H23  616   2.908   1.963   4.280 -0.8134 -0.3894 -2.5935
   17ccc    H24  617   2.995   2.013   4.139 -0.3864 -3.2179 -1.3394
   17ccc     O7  618   3.105   2.037   4.322  0.3965 -0.9176  0.4245
   17ccc    H25  619   3.102   1.998   4.412 -0.4779 -0.9534  0.3913
   17ccc     O8  620   3.040   1.745   4.350  0.0182  0.0527  0.4056
   17ccc    H26  621   2.853   1.574   4.425 -0.2796 -1.3630 -0.6199
   17ccc    H27  622   2.874   1.723   4.145  0.8992 -0.7154  0.3821
   17ccc     O9  623   2.968   1.810   3.984  0.0376  0.7594  0.0429
   17ccc    H28  624   2.873   1.816   3.965  0.0073  0.8103  0.2102
   17ccc     N3  625   3.317   1.369   4.246  0.1529 -1.0417 -0.2521
   17ccc    C17  626   3.221   0.942   3.801 -0.4487  0.5278  0.0840
   17ccc    C18  627   3.158   0.999   3.928 -0.5545 -0.2311  0.3750
   17ccc    H29  628   3.174   0.849   3.767  1.2800 -0.7146  0.9020
   17ccc    C19  629   3.166   0.893   4.044 -0.7124 -0.0418  0.5444
   17ccc    C20  630   3.313   0.845   4.064  0.8061 -0.1201  0.2963
   17ccc    C21  631   3.380   0.809   3.925  0.0012  0.5251 -0.3611
   17ccc    H30  632   3.356   0.942   4.093 -1.1451  0.8012  0.2681
   17ccc    H31  633   3.106   0.807   4.012 -0.2732 -0.0257 -0.3479
   17ccc    H32  634   3.342   0.722   3.872  2.0735  0.0080 -1.1098
   17ccc    O10  635   3.523   0.786   3.934 -0.0521  0.3259 -0.4330
   17ccc    O11  636   3.112   0.944   4.170 -0.4702 -0.1367  0.2552
   17ccc    C22  637   3.216   1.039   3.677  0.1043  0.9576 -0.0968
   17ccc    H33  638   3.128   0.877   4.238 -1.8965 -1.1637 -0.3717
   17ccc    H34  639   3.282   0.658   4.126  1.6800 -1.0895 -1.2864
   17ccc    H35  640   3.231   1.137   3.725  0.4794  0.1966  1.3895
   17ccc    H36  641   3.118   1.035   3.629  0.6514 -1.0309 -1.1317
   17ccc    O12  642   3.322   1.008   3.585 -0.2464  0.5443 -0.5563
   17ccc    H37  643   3.402   1.003   3.641 -1.4497 -3.0517  1.1690
   17ccc    O13  644   3.362   0.918   3.830 -0.4038 -0.5080 -0.2214
   17ccc    H38  645   3.544   0.755   3.844 -0.3800 -2.5268  0.3494
   17ccc    H39  646   3.207   1.088   3.969 -1.5372  1.3813 -1.7304
   17ccc     O5  647   3.021   1.039   3.908  0.1410 -0.7279  0.4109
   17ccc    H40  648   2.973   1.053   3.991  1.1925 -1.2549  1.1312
   17ccc     N4  649   3.321   0.743   4.166  0.1598 -0.9221 -0.0804
   17ccc    H41  650   3.723   0.977   4.375  1.4204 -0.6604 -1.1108
   18ccc     N1  651   5.081   1.013   2.113 -0.1484 -0.9402 -0.8633
   18ccc     H4  652   5.132   1.079   2.171  0.7020 -1.1795 -1.3236
   18ccc     C3  653   5.014   1.058   1.995 -0.4110 -0.1696  0.2664
   18ccc     H5  654   5.020   0.987   1.911 -1.2414  0.9244 -0.7609
   18ccc     C4  655   5.068   1.194   1.947  0.1658 -0.6122  0.4049
   18ccc     H6  656   4.906   1.056   2.014 -0.3166 -4.0446  1.2336
   18ccc     H7  657   5.177   1.186   1.957  0.3388  0.4893 -0.4272
   18ccc     H8  658   5.036   1.269   2.020  1.0572  0.4459 -0.2700
   18ccc     N2  659   5.027   1.232   1.806  0.2513  0.1626 -0.0209
   18ccc     C5  660   5.120   1.176   1.698 -0.1345 -0.0820  0.4322
   18ccc     C6  661   5.006   1.383   1.786  0.3467  0.2855  0.2986
   18ccc     H9  662   4.966   1.403   1.686  2.7067  1.5124 -0.4737
   18ccc     C7  663   5.127   1.481   1.799  0.4463 -0.2298  0.2248
   18ccc    H10  664   4.927   1.425   1.849  1.0200 -1.7025  2.5908
   18ccc    H11  665   5.099   1.573   1.747  0.1707 -0.9276 -0.9088
   18ccc    H12  666   5.208   1.452   1.731 -0.3851 -1.0382 -0.4696
   18ccc     C8  667   5.181   1.504   1.930  0.0759  0.0187  0.3536
   18ccc     O2  668   5.254   1.430   1.990 -0.2578  0.0927 -0.3400
   18ccc    H13  669   5.225   1.196   1.724 -0.5833  0.7806  1.6526
   18ccc    H14  670   5.097   1.234   1.608  1.7795 -0.4429 -0.3332
   18ccc     C9  671   5.106   1.033   1.654  0.1620  0.0913 -0.1927
   18ccc    H15  672   5.157   0.968   1.726 -0.0657  0.2848  0.1449
   18ccc    H16  673   5.173   1.033   1.567  1.2384  1.5343  0.5898
   18ccc    C10  674   4.955   0.997   1.625 -0.3940  0.0505 -0.1143
   18ccc     O4  675   4.862   1.073   1.601 -0.6680 -0.9988 -0.0294
   18ccc    C11  676   5.087   1.786   2.384  0.2843 -0.2917  0.1109
   18ccc    C12  677   5.001   1.661   2.361 -0.4161 -0.0319 -0.4298
   18ccc    H17  678   5.041   1.875   2.339 -0.3148 -1.2018 -1.1550
   18ccc    C13  679   4.988   1.630   2.216  0.0210  0.2131 -0.1574
   18ccc    C14  680   5.124   1.621   2.143 -0.5504  0.3901 -0.2445
   18ccc    C15  681   5.205   1.752   2.178 -0.1336  0.0330  0.1807
   18ccc    H18  682   5.179   1.537   2.187  0.0904  0.5486 -0.7294
   18ccc    H19  683   4.924   1.706   2.168  0.1501  0.7416  0.4978
   18ccc    H20  684   5.141   1.837   2.155 -2.4452 -0.7728  3.0271
   18ccc     O1  685   5.332   1.776   2.111 -0.0482 -0.5630  0.1667
   18ccc     O6  686   4.910   1.512   2.196  0.0249 -0.2670  0.2389
   18ccc    C16  687   5.111   1.804   2.535 -0.3597  0.1028 -0.5986
   18ccc    H21  688   4.950   1.436   2.242  0.6631  0.5357  1.0237
   18ccc    H22  689   5.045   1.662   1.951  0.6486  2.0702  1.0550
   18ccc    H23  690   5.177   1.722   2.565 -0.1738  1.2254  2.3742
   18ccc    H24  691   5.013   1.803   2.586 -0.5094  0.2850 -0.8807
   18ccc     O7  692   5.175   1.927   2.562 -0.0741  0.4566 -1.5912
   18ccc    H25  693   5.116   1.998   2.531 -2.0876 -1.0497 -1.4311
   18ccc     O8  694   5.221   1.759   2.319  0.3458 -1.1282 -0.3794
   18ccc    H26  695   5.316   1.796   2.017 -0.4748 -0.9532  0.1515
   18ccc    H27  696   5.054   1.574   2.402 -3.2343 -0.9082  1.7355
   18ccc     O9  697   4.866   1.665   2.423  0.6030  0.5764 -0.0155
   18ccc    H28  698   4.854   1.590   2.483 -0.6204 -0.1061 -1.0726
   18ccc     N3  699   5.113   1.600   1.995 -0.1975  0.1628 -0.1854
   18ccc    C17  700   5.009   0.478   1.499  0.4290  0.3577  0.1769
   18ccc    C18  701   5.016   0.593   1.395  0.1348  0.3988 -1.1469
   18ccc    H29  702   4.907   0.441   1.511  0.1833  1.1990  0.7577
   18ccc    C19  703   4.946   0.717   1.455 -1.1876  0.0613  0.9576
   18ccc    C20  704   4.993   0.750   1.594  0.0036  0.2604  0.1866
   18ccc    C21  705   4.983   0.630   1.690  0.2545  0.9949 -0.9892
   18ccc    H30  706   5.100   0.770   1.601  0.5732 -2.8055  3.5242
   18ccc    H31  707   4.837   0.708   1.445 -1.1595  1.3381 -1.2720
   18ccc    H32  708   4.878   0.610   1.712  1.2027 -3.1658  0.8004
   18ccc    O10  709   5.031   0.666   1.824  0.3207  0.2371 -0.5205
   18ccc    O11  710   4.981   0.824   1.361  0.0886  0.4599  0.1310
   18ccc    C22  711   5.081   0.349   1.462 -0.7982  0.6851 -0.2537
   18ccc    H33  712   4.971   0.783   1.273  1.1148  1.7377 -0.6047
   18ccc    H34  713   4.818   0.850   1.648  0.1956 -1.0672  0.5293
   18ccc    H35  714   5.029   0.302   1.377  2.1597 -2.5426 -0.5200
   18ccc    H36  715   5.065   0.285   1.550 -2.5570 -1.8441 -2.2542
   18ccc    O12  716   5.225   0.363   1.424  0.6484 -0.2788  0.6367
   18ccc    H37  717   5.265   0.275   1.414 -2.1508 -1.7199  1.1377
   18ccc    O13  718   5.056   0.517   1.634  0.7091  0.4662  0.1097
   18ccc    H38  719   5.047   0.582   1.871 -1.8346  0.9978  1.8048
   18ccc    H39  720   5.123   0.613   1.390  1.2614 -3.4271  2.1056
   18ccc     O5  721   4.959   0.554   1.277 -0.0846  0.4291  1.2336
   18ccc    H40  722   5.011   0.486   1.231 -1.1177 -0.1973  0.9476
   18ccc     N4  723   4.918   0.870   1.649  0.1459 -0.7574 -0.2111
   18ccc    H41  724   4.932   1.197   1.787  0.2706  0.0421  0.0961
   19ccc     N1  725   5.141   0.247   2.177 -0.3200  0.9072  0.2305
   19ccc     H4  726   5.230   0.260   2.223  1.2375 -1.5097 -1.8308
   19ccc     C3  727   5.109   0.100   2.167 -0.1089 -0.0381  0.6496
   19ccc     H5  728   5.158   0.036   2.242  1.0602  0.9473  0.7620
   19ccc     C4  729   5.157   0.045   2.025  0.7677 -0.6016 -0.4915
   19ccc     H6  730   5.002   0.076   2.175  0.3740 -1.7064  3.6588
   19ccc     H7  731   5.131  -0.061   2.021 -0.7105 -0.2810  0.0194
   19ccc     H8  732   5.266   0.046   2.025  0.7737 -0.8952 -0.7471
   19ccc     N2  733   5.085   0.125   1.914 -0.0583 -0.1306  0.2743
   19ccc     C5  734   4.943   0.066   1.899 -0.2242 -0.0953 -0.0111
   19ccc     C6  735   5.162   0.129   1.776 -1.2528 -1.1565 -1.0144
   19ccc     H9  736   5.186   0.028   1.740  0.8452 -0.3437 -2.0743
   19ccc     C7  737   5.289   0.227   1.767  0.1837 -0.4634  0.2879
   19ccc    H10  738   5.096   0.168   1.697  1.1596  1.8871 -1.7061
   19ccc    H11  739   5.327   0.234   1.664  0.8092 -1.6187  0.4328
   19ccc    H12  740   5.370   0.186   1.828 -0.3031 -2.3194 -0.2432
   19ccc     C8  741   5.266   0.374   1.806  0.0554  0.3701  0.6980
   19ccc     O2  742   5.169   0.421   1.861  0.3233 -0.0169 -0.0733
   19ccc    H13  743   4.901   0.054   2.000 -0.7839 -0.8098 -0.3212
   19ccc    H14  744   4.965  -0.036   1.864  1.7327  0.8569 -1.8018
   19ccc     C9  745   4.844   0.139   1.807  0.4422  0.2620 -0.1951
   19ccc    H15  746   4.754   0.080   1.784  0.5170  0.8750 -2.2771
   19ccc    H16  747   4.886   0.152   1.706  3.8799 -1.7192  0.8326
   19ccc    C10  748   4.803   0.277   1.845  0.4112  0.0610  0.2607
   19ccc     O4  749   4.877   0.376   1.830  0.8145  0.7436  0.6807
   19ccc    C11  750   5.404   0.861   1.903  0.8849  0.4458 -0.3782
   19ccc    C12  751   5.413   0.760   2.023 -0.2219 -0.5830  0.1431
   19ccc    H17  752   5.300   0.879   1.871  1.1393 -0.9609 -2.1564
   19ccc    C13  753   5.363   0.622   1.984  0.1788  1.2916 -0.1480
   19ccc    C14  754   5.429   0.570   1.853 -0.3578 -0.3041 -0.3707
   19ccc    C15  755   5.415   0.678   1.734 -0.3649  0.5184 -0.3901
   19ccc    H18  756   5.537   0.566   1.872 -0.6121  0.5797  1.4435
   19ccc    H19  757   5.253   0.620   1.985  0.1797  1.2918  0.2912
   19ccc    H20  758   5.313   0.691   1.694 -0.2998  0.5385 -0.5523
   19ccc     O1  759   5.499   0.649   1.623  0.2902 -0.1408 -0.1812
   19ccc     O6  760   5.409   0.528   2.082 -0.5183  0.1913  0.0458
   19ccc    C16  761   5.462   0.999   1.945 -0.0201 -0.3091 -0.1041
   19ccc    H21  762   5.424   0.442   2.040 -3.3993 -0.6243  0.4723
   19ccc    H22  763   5.458   0.386   1.758 -0.3543  0.0894 -1.3835
   19ccc    H23  764   5.568   0.986   1.969  0.0365 -0.4505 -0.4199
   19ccc    H24  765   5.405   1.046   2.026 -1.3789 -1.1279 -0.5509
   19ccc     O7  766   5.447   1.100   1.846  0.7963  0.2586  0.3927
   19ccc    H25  767   5.500   1.175   1.876  0.6499  1.3262 -1.8065
   19ccc     O8  768   5.464   0.800   1.783 -0.4293 -0.2151 -0.2671
   19ccc    H26  769   5.470   0.564   1.586 -1.5517  0.4116 -0.0850
   19ccc    H27  770   5.519   0.745   2.047 -0.0886  1.2482  0.8238
   19ccc     O9  771   5.342   0.804   2.139  0.4641  0.3200  0.2539
   19ccc    H28  772   5.379   0.753   2.213 -2.5671 -1.8994  0.4033
   19ccc     N3  773   5.386   0.435   1.810  0.7830 -0.0012  0.3622
   19ccc    C17  774   4.694   0.705   1.940  0.1502  0.0617  0.2040
   19ccc    C18  775   4.598   0.669   1.830  0.4794  0.1381 -0.3185
   19ccc    H29  776   4.801   0.697   1.919  0.6416  1.0604  2.0620
   19ccc    C19  777   4.608   0.525   1.795  0.2501  0.3149  0.3164
   19ccc    C20  778   4.615   0.425   1.919  0.2813 -0.3508 -0.8529
   19ccc    C21  779   4.697   0.498   2.038 -0.6709  0.0808  0.7412
   19ccc    H30  780   4.516   0.400   1.957  0.1839  1.5279  0.2745
   19ccc    H31  781   4.704   0.510   1.745  0.2983 -0.6707  0.6742
   19ccc    H32  782   4.806   0.490   2.025 -0.7277 -1.1196  0.8548
   19ccc    O10  783   4.671   0.425   2.157  0.1916 -0.0186  0.0973
   19ccc    O11  784   4.504   0.490   1.708 -0.1066 -0.0648  0.3011
   19ccc    C22  785   4.682   0.851   1.980 -0.0985  0.4057 -0.0253
   19ccc    H33  786   4.521   0.396   1.685  1.0811  0.3294 -0.5348
   19ccc    H34  787   4.599   0.230   1.866  1.6525 -1.6092 -3.0278
   19ccc    H35  788   4.723   0.906   1.895 -2.1445  0.5236 -1.0106
   19ccc    H36  789   4.755   0.863   2.061  0.2961 -2.5080  0.1718
   19ccc    O12  790   4.549   0.895   2.007 -0.3120  0.1460 -0.2540
   19ccc    H37  791   4.539   0.866   2.100 -1.6063 -1.2360 -0.7823
   19ccc    O13  792   4.658   0.630   2.057 -0.6211  0.1701 -0.3272
   19ccc    H38  793   4.589   0.462   2.194 -0.2475 -1.2871  0.4416
   19ccc    H39  794   4.497   0.685   1.871  0.9003 -0.9653  1.1981
   19ccc     O5  795   4.627   0.748   1.711  0.5098  0.0933  0.2394
   19ccc    H40  796   4.545   0.738   1.660  0.4521  0.0613  0.3378
   19ccc     N4  797   4.673   0.299   1.878  0.0497 -0.3112  0.6814
   19ccc    H41  798   5.084   0.221   1.951  2.1161 -0.4306  1.2691
   20ccc     N1  799   4.582   0.822   1.247  0.3429 -0.1879 -0.4771
   20ccc     H4  800   4.536   0.860   1.164  0.2388 -0.3978 -0.5139
   20ccc     C3  801   4.619   0.683   1.247  0.2569  0.4561  0.7450
   20ccc     H5  802   4.726   0.659   1.236 -0.2581 -2.4745  1.3251
   20ccc     C4  803   4.539   0.599   1.144  0.1463 -0.3047 -0.0199
   20ccc     H6  804   4.603   0.633   1.343  0.9688  0.6986  1.0015
   20ccc     H7  805   4.592   0.503   1.141  0.3803 -0.1875  0.2250
   20ccc     H8  806   4.555   0.643   1.045  0.9964  1.1667  0.7253
   20ccc     N2  807   4.388   0.591   1.171 -0.1654  0.5658 -0.2390
   20ccc     C5  808   4.355   0.543   1.316 -0.4367  0.0240  0.0445
   20ccc     C6  809   4.325   0.509   1.066  0.0756  1.6554  0.6635
   20ccc     H9  810   4.346   0.555   0.969 -2.6124  0.2181 -0.6953
   20ccc     C7  811   4.172   0.494   1.088  0.1389  0.2408  0.2138
   20ccc    H10  812   4.372   0.411   1.054 -1.4583  0.8983  0.6677
   20ccc    H11  813   4.119   0.590   1.101 -1.0234 -0.4001  0.3067
   20ccc    H12  814   4.161   0.437   1.181  1.5549  1.0197  0.8984
   20ccc     C8  815   4.111   0.419   0.964  0.7281 -0.8360 -0.1684
   20ccc     O2  816   4.163   0.414   0.856  0.1951  0.4830  0.1850
   20ccc    H13  817   4.246   0.552   1.320 -0.6367 -1.1874 -1.5557
   20ccc    H14  818   4.401   0.616   1.384  3.5364 -2.0109 -0.1304
   20ccc     C9  819   4.417   0.402   1.356 -0.1623 -0.5413 -0.3796
   20ccc    H15  820   4.516   0.417   1.402 -0.3399 -2.6773  0.8460
   20ccc    H16  821   4.430   0.352   1.260 -0.5430 -3.6396  1.0624
   20ccc    C10  822   4.325   0.317   1.438  0.6675 -0.1383  0.7386
   20ccc     O4  823   4.218   0.346   1.485 -0.0320  0.2905 -0.0252
   20ccc    C11  824   3.844   0.154   0.644  0.3624 -0.2825 -0.0231
   20ccc    C12  825   3.929   0.063   0.741  0.0765  0.3517  0.6249
   20ccc    H17  826   3.917   0.194   0.573  0.4360 -1.3912 -0.5869
   20ccc    C13  827   4.007   0.139   0.855 -0.0301 -1.0361  0.7035
   20ccc    C14  828   3.925   0.260   0.900  0.1492 -0.0954  0.5716
   20ccc    C15  829   3.861   0.342   0.791  0.3383 -0.1103 -0.1860
   20ccc    H18  830   3.849   0.215   0.965 -0.1964  0.9052  0.8831
   20ccc    H19  831   4.098   0.171   0.802 -0.4025 -0.3274  0.4786
   20ccc    H20  832   3.929   0.381   0.715  0.8660  0.6525  0.6508
   20ccc     O1  833   3.794   0.451   0.853  0.0384  0.6095 -0.4893
   20ccc     O6  834   4.037   0.048   0.961  0.0862 -0.3664 -0.4132
   20ccc    C16  835   3.752   0.075   0.551  0.5217  0.0688  0.1235
   20ccc    H21  836   3.970   0.062   1.029  0.5677 -0.4410  0.0846
   20ccc    H22  837   3.958   0.370   1.078 -0.0587  1.0026 -0.4322
   20ccc    H23  838   3.798   0.021   0.467 -0.2103 -2.4334  1.2264
   20ccc    H24  839   3.689   0.147   0.499  0.7584  0.6776  0.6693
   20ccc     O7  840   3.674  -0.021   0.618 -0.4910  0.3305  0.5223
   20ccc    H25  841   3.671  -0.102   0.563 -1.7362  0.2981  0.6181
   20ccc     O8  842   3.773   0.259   0.714 -0.3647  0.5199 -0.1458
   20ccc    H26  843   3.857   0.525   0.857  0.6305  0.1660 -1.2096
   20ccc    H27  844   3.856  -0.002   0.791 -0.8654  1.7718  1.1572
   20ccc     O9  845   4.024  -0.019   0.665 -0.1227  0.0001 -0.5502
   20ccc    H28  846   3.971  -0.082   0.614 -0.1389 -0.9002  0.5312
   20ccc     N3  847   4.000   0.351   0.987 -0.2736 -0.3777 -0.2696
   20ccc    C17  848   4.710  -0.063   1.492 -0.3998 -0.0838 -0.4718
   20ccc    C18  849   4.595  -0.103   1.392  0.8971 -0.6425  0.7397
   20ccc    H29  850   4.701  -0.106   1.592  0.1372 -0.2705 -0.4995
   20ccc    C19  851   4.461  -0.032   1.421 -0.0205 -0.3139 -0.3259
   20ccc    C20  852   4.481   0.122   1.437  0.8028  0.5170  0.3036
   20ccc    C21  853   4.598   0.145   1.541  0.9266  0.0618  0.0984
   20ccc    H30  854   4.518   0.157   1.340  0.3020 -0.7995 -0.3991
   20ccc    H31  855   4.423  -0.074   1.515  0.9445 -2.6221 -0.9033
   20ccc    H32  856   4.584   0.103   1.641 -0.4279 -0.8571 -0.4534
   20ccc    O10  857   4.635   0.280   1.558 -0.1260  0.1130  0.3446
   20ccc    O11  858   4.369  -0.054   1.320  0.6512  0.0776  0.1949
   20ccc    C22  859   4.856  -0.097   1.445 -0.1081  0.4359  0.0571
   20ccc    H33  860   4.370  -0.149   1.301 -2.7872  0.2453 -1.5281
   20ccc    H34  861   4.304   0.149   1.552 -0.1114  2.2170  1.7465
   20ccc    H35  862   4.879  -0.048   1.350  0.2430  0.2582  0.0468
   20ccc    H36  863   4.874  -0.205   1.437 -1.8320  0.1665 -0.6290
   20ccc    O12  864   4.954  -0.053   1.537  0.2644 -0.1276  0.5784
   20ccc    H37  865   5.035  -0.103   1.520 -1.4027 -2.5616 -0.8748
   20ccc    O13  866   4.718   0.084   1.485  0.3253 -0.3968  0.6842
   20ccc    H38  867   4.714   0.278   1.501  0.2301 -1.8688  0.8480
   20ccc    H39  868   4.628  -0.059   1.297  0.2473 -0.4809  0.5832
   20ccc     O5  869   4.583  -0.249   1.381  0.1951 -0.2324 -0.0306
   20ccc    H40  870   4.665  -0.301   1.390  1.4884  1.8075  0.7252
   20ccc     N4  871   4.355   0.191   1.475 -0.2180 -0.3631  0.1421
   20ccc    H41  872   4.348   0.686   1.160 -1.1160  0.1505 -0.4680
   21ccc     N1  873   4.167   0.715   1.603  0.3464  0.0377 -0.3329
   21ccc     H4  874   4.069   0.742   1.594  0.6628  3.0746  3.0360
   21ccc     C3  875   4.198   0.606   1.697 -0.4323  0.0457  0.2982
   21ccc     H5  876   4.273   0.541   1.650  1.1319  0.6454  1.8110
   21ccc     C4  877   4.080   0.516   1.739 -0.8783  0.2361 -0.3955
   21ccc     H6  878   4.255   0.639   1.785 -0.4534 -1.9413  1.1144
   21ccc     H7  879   4.021   0.501   1.647  0.4860  0.9396 -1.4293
   21ccc     H8  880   4.010   0.567   1.806  0.8756  0.9264  0.9686
   21ccc     N2  881   4.120   0.377   1.796 -0.1613 -0.1108 -0.0283
   21ccc     C5  882   3.995   0.289   1.788 -0.0602  0.1749  0.0880
   21ccc     C6  883   4.163   0.390   1.930 -0.1818  0.3721 -0.0571
   21ccc     H9  884   4.239   0.470   1.929 -0.3931  0.5729 -0.9546
   21ccc     C7  885   4.233   0.260   1.992 -0.5199 -0.0328 -0.0512
   21ccc    H10  886   4.077   0.427   1.987 -0.2884 -2.7325  2.0339
   21ccc    H11  887   4.157   0.190   2.028  0.9952 -1.3469  0.7426
   21ccc    H12  888   4.282   0.295   2.084 -1.9243 -0.6929  0.9959
   21ccc     C8  889   4.335   0.182   1.913 -0.1470  0.0277  0.0149
   21ccc     O2  890   4.397   0.227   1.818  0.6755 -0.0138 -0.6798
   21ccc    H13  891   3.906   0.343   1.823 -0.0392 -0.1409  0.6497
   21ccc    H14  892   4.016   0.199   1.847 -0.2564 -0.1882 -0.3897
   21ccc     C9  893   3.968   0.223   1.651 -0.0240  0.4405 -0.0388
   21ccc    H15  894   3.991   0.281   1.560 -2.2289 -2.7282 -2.8484
   21ccc    H16  895   3.861   0.203   1.655  0.2210 -0.7221  1.5115
   21ccc    C10  896   4.050   0.099   1.633 -0.4264  0.1777  0.3754
   21ccc     O4  897   4.148   0.075   1.699 -0.0991  0.3296  0.1492
   21ccc    C11  898   4.599  -0.277   1.903 -0.5239 -0.3425  0.3407
   21ccc    C12  899   4.493  -0.278   1.790  0.2432 -0.2080  0.1764
   21ccc    H17  900   4.550  -0.333   1.984 -1.6290  0.9964  0.6490
   21ccc    C13  901   4.376  -0.180   1.819  0.5123 -0.3329 -0.5175
   21ccc    C14  902   4.430  -0.045   1.879  0.1875  0.1675 -0.6339
   21ccc    C15  903   4.524  -0.066   1.998  0.2037 -0.4607  0.0708
   21ccc    H18  904   4.492  -0.002   1.799 -0.6619  1.6753 -0.5158
   21ccc    H19  905   4.310  -0.225   1.893 -2.5798  3.4069 -0.6820
   21ccc    H20  906   4.482  -0.117   2.086 -0.7230  1.1438  0.6002
   21ccc     O1  907   4.599   0.046   2.042  0.5696  0.2647 -0.2741
   21ccc     O6  908   4.308  -0.137   1.698  0.3248  0.4060  0.1846
   21ccc    C16  909   4.727  -0.353   1.867 -0.0814 -0.0306 -0.2976
   21ccc    H21  910   4.240  -0.075   1.730 -1.7833 -1.7084  0.0369
   21ccc    H22  911   4.268  -0.005   1.981  0.2292 -1.5978 -1.3623
   21ccc    H23  912   4.785  -0.324   1.779  1.3828  1.2508  1.0200
   21ccc    H24  913   4.689  -0.455   1.856  0.3430 -0.2344  0.0487
   21ccc     O7  914   4.820  -0.336   1.975  0.2032  0.2254 -0.3048
   21ccc    H25  915   4.811  -0.240   1.989  0.0403  0.2355 -0.4766
   21ccc     O8  916   4.628  -0.141   1.946 -0.2855  0.7034  0.1691
   21ccc    H26  917   4.679  -0.005   2.066  0.8744 -0.2937 -2.2800
   21ccc    H27  918   4.556  -0.244   1.707 -1.0488  1.2264 -0.2587
   21ccc     O9  919   4.433  -0.406   1.771  0.2739 -0.0198 -0.0162
   21ccc    H28  920   4.379  -0.404   1.690  0.3037  0.1549 -0.0306
   21ccc     N3  921   4.330   0.048   1.920  0.5320 -0.1770  0.1033
   21ccc    C17  922   3.810  -0.067   1.179 -0.1153 -0.3784  1.1801
   21ccc    C18  923   3.730  -0.084   1.306  0.4676  0.1623 -0.3556
   21ccc    H29  924   3.873  -0.151   1.146 -1.7708 -0.1307 -3.4393
   21ccc    C19  925   3.822  -0.099   1.433  0.2271  0.1078 -0.5315
   21ccc    C20  926   3.911   0.018   1.445  0.0727 -0.5975 -0.1141
   21ccc    C21  927   3.988   0.047   1.311  0.0820 -0.0989 -0.9358
   21ccc    H30  928   3.843   0.102   1.462 -0.5270 -0.8337 -1.2344
   21ccc    H31  929   3.887  -0.186   1.418 -1.3951 -1.3377  0.4316
   21ccc    H32  930   4.064  -0.032   1.300  0.6435  0.1814  0.7125
   21ccc    O10  931   4.052   0.173   1.316  0.2363  0.1256  0.6934
   21ccc    O11  932   3.731  -0.114   1.542 -0.0208 -0.1295 -0.2473
   21ccc    C22  933   3.713  -0.045   1.062  0.5472  0.3507  0.3032
   21ccc    H33  934   3.695  -0.024   1.552  3.8257  1.6488 -0.6158
   21ccc    H34  935   4.073  -0.074   1.548 -1.2907 -0.6156 -0.2692
   21ccc    H35  936   3.636  -0.122   1.055  0.5839  0.3804 -0.5252
   21ccc    H36  937   3.765  -0.040   0.966  1.0956  2.8807  0.6536
   21ccc    O12  938   3.641   0.081   1.081 -0.0408 -0.3618  0.5859
   21ccc    H37  939   3.592   0.096   0.998  0.1506 -0.4887  0.4484
   21ccc    O13  940   3.893   0.044   1.199 -0.2314 -0.3300 -0.3143
   21ccc    H38  941   4.109   0.172   1.237 -0.3993  0.9059  0.2085
   21ccc    H39  942   3.681   0.011   1.329 -0.3585 -0.1491 -0.7811
   21ccc     O5  943   3.624  -0.181   1.296 -0.4338  0.6169  0.3860
   21ccc    H40  944   3.571  -0.156   1.374  1.2952 -1.6184  2.4160
   21ccc     N4  945   4.011   0.006   1.553 -0.8246 -0.2380 -0.4410
   21ccc    H41  946   4.189   0.336   1.731 -3.0507 -0.2044 -3.3407
   22ccc     N1  947   3.743   3.189   4.083 -0.3086  0.1580 -0.0400
   22ccc     H4  948   3.732   3.089   4.074 -1.9081  0.5076 -3.6271
   22ccc     C3  949   3.660   3.260   4.183  0.5903 -0.2619 -0.0158
   22ccc     H5  950   3.684   3.367   4.176  0.3514 -0.2866 -1.7594
   22ccc     C4  951   3.675   3.211   4.326 -0.3638  0.7183 -0.3966
   22ccc     H6  952   3.552   3.251   4.162 -0.0896  2.3771  1.8484
   22ccc     H7  953   3.662   3.102   4.322  0.7644  0.4753  1.3953
   22ccc     H8  954   3.597   3.257   4.388 -0.0558 -1.9525  2.1808
   22ccc     N2  955   3.812   3.245   4.390 -0.2202 -0.0873 -0.2445
   22ccc     C5  956   3.803   3.180   4.535  0.8195  0.2526  0.0744
   22ccc     C6  957   3.846   3.387   4.400  0.0623 -0.8397 -0.3935
   22ccc     H9  958   3.938   3.405   4.457 -0.0125 -0.0143 -0.5170
   22ccc     C7  959   3.739   3.485   4.450 -0.0680  0.1263 -0.2926
   22ccc    H10  960   3.870   3.433   4.303  0.4461  0.0721  0.1191
   22ccc    H11  961   3.695   3.461   4.548  0.1191  1.7202  0.1957
   22ccc    H12  962   3.664   3.495   4.370  0.1208 -1.6841 -0.7426
   22ccc     C8  963   3.796   3.622   4.495  0.8531 -0.5871  0.0686
   22ccc     O2  964   3.843   3.648   4.599 -0.0852 -0.6969 -0.0894
   22ccc    H13  965   3.723   3.230   4.592 -0.2740 -0.6565 -0.6116
   22ccc    H14  966   3.898   3.209   4.580  0.9870 -0.5124  0.2238
   22ccc     C9  967   3.788   3.030   4.549 -0.1988  0.6977 -0.7186
   22ccc    H15  968   3.685   2.994   4.536 -0.2732  0.7223 -0.2265
   22ccc    H16  969   3.833   2.997   4.644 -0.2761  0.8073 -0.6441
   22ccc    C10  970   3.872   2.946   4.450  0.0458 -0.1425  0.4265
   22ccc     O4  971   3.926   2.980   4.347 -0.0708 -0.0703 -0.0297
   22ccc    C11  972   3.984   4.088   4.308 -0.0908 -0.7278 -0.2723
   22ccc    C12  973   3.834   4.102   4.331  1.0884  0.1209 -0.7223
   22ccc    H17  974   4.003   4.034   4.214 -1.6635 -1.9269  0.0545
   22ccc    C13  975   3.779   3.959   4.317  0.0570  0.3766  0.0169
   22ccc    C14  976   3.843   3.860   4.422  0.1825  0.2385  0.1027
   22ccc    C15  977   3.991   3.862   4.399  0.4321 -0.4754 -0.0531
   22ccc    H18  978   3.812   3.896   4.521 -3.8038 -1.0083 -0.5440
   22ccc    H19  979   3.793   3.925   4.214  1.3495  0.5070  0.1342
   22ccc    H20  980   4.026   3.830   4.300  0.2036 -0.4269 -0.1494
   22ccc     O1  981   4.072   3.813   4.502  0.0513 -0.1168 -0.0499
   22ccc     O6  982   3.639   3.968   4.348 -0.1614  0.3940 -0.0964
   22ccc    C16  983   4.059   4.224   4.302  0.2998 -0.4206 -0.7898
   22ccc    H21  984   3.607   4.044   4.295  2.2482  2.8968  1.7365
   22ccc    H22  985   3.738   3.705   4.313 -1.4968  0.7214  0.6933
   22ccc    H23  986   4.042   4.290   4.216 -2.8033  0.2795  0.2226
   22ccc    H24  987   4.165   4.197   4.313 -0.1219 -0.9851  3.7802
   22ccc     O7  988   4.024   4.283   4.425 -0.3283 -0.6393 -0.0558
   22ccc    H25  989   3.951   4.343   4.402  0.0114 -0.6767 -1.3463
   22ccc     O8  990   4.033   3.998   4.412 -0.0864 -0.2880  0.2432
   22ccc    H26  991   4.045   3.854   4.586 -0.7789 -0.7265  0.0009
   22ccc    H27  992   3.816   4.146   4.430 -2.3871 -2.0486 -0.2025
   22ccc     O9  993   3.769   4.186   4.235 -0.2978  0.2964 -0.2571
   22ccc    H28  994   3.709   4.238   4.290 -1.3633 -0.7212 -0.4186
   22ccc     N3  995   3.781   3.721   4.404 -0.2584 -0.2662  0.3096
   22ccc    C17  996   4.122   2.461   4.528 -0.9740 -0.1876 -0.0616
   22ccc    C18  997   4.019   2.453   4.413  1.0458  0.1601 -0.3182
   22ccc    H29  998   4.084   2.437   4.628  0.6526 -2.5540  0.0691
   22ccc    C19  999   3.920   2.572   4.408 -0.0934 -0.5829  0.4197
   22ccc    C20 1000   3.978   2.711   4.447 -0.0579  0.1231  0.7111
   22ccc    C21 1001   4.072   2.695   4.563 -0.2169  0.3285  0.2960
   22ccc    H30 1002   4.032   2.744   4.357 -0.5682 -2.6944 -0.7246
   22ccc    H31 1003   3.846   2.529   4.478 -1.9636 -0.7193 -1.5199
   22ccc    H32 1004   4.016   2.663   4.651 -0.5738  0.8421  0.2597
   22ccc    O10 1005   4.145   2.812   4.600  0.9264  0.1224  0.2503
   22ccc    O11 1006   3.855   2.582   4.279  0.5785 -0.6275  0.4536
   22ccc    C22 1007   4.239   2.359   4.503  0.1592 -0.4402  0.5711
   22ccc    H33 1008   3.776   2.525   4.278  1.0421 -1.2913 -1.1316
   22ccc    H34 1009   3.839   2.783   4.574  0.5420 -1.4176  0.1553
   22ccc    H35 1010   4.285   2.390   4.409 -0.4961 -0.6437  0.1782
   22ccc    H36 1011   4.178   2.268   4.496 -1.8753  0.9921 -2.3915
   22ccc    O12 1012   4.333   2.359   4.607  0.7545  0.3629  0.6542
   22ccc    H37 1013   4.283   2.388   4.685 -1.7270 -0.8074 -0.3772
   22ccc    O13 1014   4.176   2.595   4.535 -0.6468  0.0651  0.4439
   22ccc    H38 1015   4.166   2.805   4.695  1.3501  3.7320  0.5480
   22ccc    H39 1016   4.068   2.469   4.316  0.3569 -0.9724 -0.8654
   22ccc     O5 1017   3.943   2.333   4.421  0.2968  0.2261 -0.5830
   22ccc    H40 1018   3.895   2.322   4.337 -0.8516 -2.0864  0.3010
   22ccc     N4 1019   3.880   2.815   4.486  0.5502 -0.1590  0.5920
   22ccc    H41 1020   3.883   3.197   4.332 -1.5112 -0.9396 -1.1772
   23ccc     N1 1021   4.549   3.161   4.028  0.5500  0.6488 -0.0245
   23ccc     H4 1022   4.574   3.258   4.034 -0.1001  1.0065 -2.1097
   23ccc     C3 1023   4.597   3.053   4.116  0.0905 -0.0291 -0.2537
   23ccc     H5 1024   4.614   2.960   4.060  1.1261 -0.2661  0.4392
   23ccc     C4 1025   4.508   3.024   4.238  0.3572 -0.1587 -0.5749
   23ccc     H6 1026   4.691   3.102   4.142 -1.3487  3.5771 -1.1433
   23ccc     H7 1027   4.492   3.117   4.295  0.7881 -0.6405  0.3607
   23ccc     H8 1028   4.549   2.964   4.320 -0.7185  0.9522  0.8420
   23ccc     N2 1029   4.370   2.966   4.205 -0.1851  0.2690  0.9123
   23ccc     C5 1030   4.278   2.980   4.331 -0.7068  0.6571  0.6629
   23ccc     C6 1031   4.384   2.813   4.164  1.2594  0.2620  0.3551
   23ccc     H9 1032   4.441   2.804   4.071 -1.0708 -1.5621 -1.0340
   23ccc     C7 1033   4.255   2.728   4.157  0.0960  0.3121  0.3402
   23ccc    H10 1034   4.441   2.753   4.235 -0.8141 -1.1784  0.9194
   23ccc    H11 1035   4.223   2.694   4.256  1.3919 -0.9167  0.3551
   23ccc    H12 1036   4.284   2.633   4.112  1.7368  1.3108 -0.8301
   23ccc     C8 1037   4.140   2.786   4.063 -0.2294 -0.5931  0.4000
   23ccc     O2 1038   4.164   2.860   3.971 -0.2559  0.3843 -0.1640
   23ccc    H13 1039   4.309   2.915   4.414  0.7522 -1.3155 -1.3007
   23ccc    H14 1040   4.184   2.937   4.296 -1.0195  0.6700  1.4707
   23ccc     C9 1041   4.237   3.120   4.382  0.4212  0.5559 -0.4690
   23ccc    H15 1042   4.320   3.160   4.442  2.0273  0.9251 -2.7840
   23ccc    H16 1043   4.147   3.110   4.443  0.4301  1.2708 -0.3327
   23ccc    C10 1044   4.209   3.228   4.278 -0.3351 -0.3213  0.9886
   23ccc     O4 1045   4.174   3.209   4.163 -0.3774 -0.6474  0.3600
   23ccc    C11 1046   3.679   2.660   3.840 -0.0332  0.5014 -0.5258
   23ccc    C12 1047   3.669   2.794   3.921  0.3059 -0.0445  0.2344
   23ccc    H17 1048   3.659   2.576   3.908 -1.3988 -0.1051 -1.6118
   23ccc    C13 1049   3.775   2.795   4.036  0.1484 -0.2847  0.1800
   23ccc    C14 1050   3.911   2.771   3.971 -0.3149 -0.2233 -0.1830
   23ccc    C15 1051   3.912   2.638   3.882  0.1154 -1.2032  0.3441
   23ccc    H18 1052   3.932   2.855   3.903 -0.4605  0.3195  0.4318
   23ccc    H19 1053   3.756   2.710   4.103  2.7724 -2.2228 -1.3784
   23ccc    H20 1054   3.901   2.543   3.936  1.5211 -2.1886 -1.0096
   23ccc     O1 1055   4.031   2.633   3.804 -0.0550  0.4667  0.1150
   23ccc     O6 1056   3.777   2.915   4.110  0.2111 -0.2405  0.1941
   23ccc    C16 1057   3.571   2.645   3.731  0.2017  0.5838 -0.3412
   23ccc    H21 1058   3.832   2.891   4.186 -1.1230 -0.6515  1.0737
   23ccc    H22 1059   3.998   2.664   4.135 -0.1540 -0.5868 -0.9241
   23ccc    H23 1060   3.474   2.659   3.778  0.3984 -1.1372  0.6459
   23ccc    H24 1061   3.574   2.544   3.688  2.2398  0.9782 -1.2782
   23ccc     O7 1062   3.597   2.749   3.634  0.0546 -0.6105  0.5414
   23ccc    H25 1063   3.517   2.764   3.580  0.2316 -1.5664 -0.0098
   23ccc     O8 1064   3.812   2.647   3.786  0.0488 -0.1148  0.0011
   23ccc    H26 1065   4.011   2.563   3.739 -1.4704  0.6487  0.3214
   23ccc    H27 1066   3.693   2.869   3.844  0.9916  0.3794  0.8557
   23ccc     O9 1067   3.541   2.797   3.980  0.9979 -0.6600  0.3266
   23ccc    H28 1068   3.529   2.864   4.050 -2.1808 -0.9536  0.2334
   23ccc     N3 1069   4.013   2.744   4.075  0.2923  0.0313 -0.0125
   23ccc    C17 1070   4.326   3.745   4.187  0.5446 -0.0972  0.8634
   23ccc    C18 1071   4.438   3.635   4.155  1.0093  0.0452  0.1669
   23ccc    H29 1072   4.335   3.784   4.289  1.5002  1.5689  0.1796
   23ccc    C19 1073   4.406   3.511   4.242 -0.2311 -0.1241 -0.2937
   23ccc    C20 1074   4.266   3.469   4.235  0.5860  0.1068  0.9564
   23ccc    C21 1075   4.167   3.582   4.272  0.4548 -0.0881  0.6595
   23ccc    H30 1076   4.250   3.449   4.128  1.8369 -0.4784  0.8618
   23ccc    H31 1077   4.438   3.539   4.343 -1.1866  0.4784 -0.1374
   23ccc    H32 1078   4.168   3.614   4.377 -0.0160 -1.1999  1.0147
   23ccc    O10 1079   4.038   3.555   4.214  0.4601 -0.6451  0.1842
   23ccc    O11 1080   4.487   3.400   4.201  0.0347  0.4854  0.0421
   23ccc    C22 1081   4.325   3.859   4.085  0.2582  0.1708 -0.2902
   23ccc    H33 1082   4.560   3.414   4.264 -0.8870 -1.1176  1.5437
   23ccc    H34 1083   4.257   3.362   4.428 -1.1978  0.1799  0.2878
   23ccc    H35 1084   4.281   3.816   3.995 -0.8351 -2.0347  1.2099
   23ccc    H36 1085   4.428   3.891   4.066  0.0321  0.6526 -0.7407
   23ccc    O12 1086   4.254   3.975   4.128 -0.0080  0.2419  0.1155
   23ccc    H37 1087   4.316   4.045   4.158 -1.6113  1.1253  1.5916
   23ccc    O13 1088   4.198   3.687   4.182 -0.3770 -0.4447 -0.1169
   23ccc    H38 1089   4.045   3.569   4.119 -1.3822  1.2307  0.2534
   23ccc    H39 1090   4.442   3.598   4.052  0.4605  0.2729  0.0584
   23ccc     O5 1091   4.571   3.688   4.191  0.4123  1.0819  0.3378
   23ccc    H40 1092   4.634   3.701   4.118  0.9130  1.0674  0.7667
   23ccc     N4 1093   4.239   3.351   4.328  0.3714  0.0518 -0.0112
   23ccc    H41 1094   4.332   3.016   4.123  0.0149 -1.7847 -0.5313
   24ccc     N1 1095   4.370   1.554   4.449 -0.5646  0.1748  0.2408
   24ccc     H4 1096   4.348   1.558   4.548  0.3580  0.8763  0.4301
   24ccc     C3 1097   4.502   1.495   4.414 -0.0173  0.6179  0.0088
   24ccc     H5 1098   4.514   1.408   4.480 -1.0596  0.1172 -0.4339
   24ccc     C4 1099   4.605   1.604   4.447  0.2953  0.1697 -0.8503
   24ccc     H6 1100   4.506   1.456   4.312 -2.5082  0.6319 -0.1681
   24ccc     H7 1101   4.583   1.643   4.547 -1.0971  0.1645 -1.1334
   24ccc     H8 1102   4.591   1.688   4.378 -1.8698  0.4747 -0.1097
   24ccc     N2 1103   4.750   1.560   4.437  0.1599 -0.5134 -0.1230
   24ccc     C5 1104   4.785   1.460   4.538  0.2098  0.4232 -0.4020
   24ccc     C6 1105   4.833   1.689   4.450  0.4979  0.8964 -0.1069
   24ccc     H9 1106   4.938   1.659   4.454 -0.1814 -1.5355  2.4034
   24ccc     C7 1107   4.809   1.779   4.575  0.2027  0.7554  0.1621
   24ccc    H10 1108   4.825   1.743   4.355 -1.0512  0.8526 -0.0329
   24ccc    H11 1109   4.829   1.713   4.660 -0.9048  0.0068 -0.1314
   24ccc    H12 1110   4.705   1.811   4.594 -0.3855 -1.3213  0.6245
   24ccc     C8 1111   4.898   1.900   4.580 -0.8748  0.3864 -0.1668
   24ccc     O2 1112   4.883   1.990   4.504  0.1816  0.0780  0.3132
   24ccc    H13 1113   4.697   1.397   4.560  0.1256  0.5619 -0.3392
   24ccc    H14 1114   4.796   1.516   4.632 -0.2602  1.7390 -1.1020
   24ccc     C9 1115   4.905   1.367   4.510  0.1066 -0.0425 -0.6911
   24ccc    H15 1116   4.919   1.303   4.597  0.5916  1.8069  0.6679
   24ccc    H16 1117   5.005   1.413   4.504  0.2607 -0.3444 -0.4220
   24ccc    C10 1118   4.886   1.294   4.380  0.5648  0.4879  0.1775
   24ccc     O4 1119   4.802   1.332   4.296 -0.0703  0.1195 -0.6246
   24ccc    C11 1120   5.231   2.151   4.928  0.9508 -0.1370 -0.8844
   24ccc    C12 1121   5.306   2.038   4.855 -0.7194  0.3928 -0.2331
   24ccc    H17 1122   5.169   2.115   5.011  0.4250  1.9475 -0.3118
   24ccc    C13 1123   5.209   1.936   4.798  0.6813 -0.0492  1.1935
   24ccc    C14 1124   5.096   1.996   4.708  0.8090 -0.0124 -0.4114
   24ccc    C15 1125   5.038   2.119   4.785  0.1236 -0.9246  0.2010
   24ccc    H18 1126   5.129   2.034   4.610  1.3822  2.6460  0.7172
   24ccc    H19 1127   5.162   1.886   4.884  0.8929 -1.6091  0.4281
   24ccc    H20 1128   4.971   2.081   4.864  2.5228  0.1661  2.9742
   24ccc     O1 1129   4.969   2.210   4.695  0.3505  0.0928  0.4933
   24ccc     O6 1130   5.278   1.839   4.714 -0.1107  0.2311  0.2391
   24ccc    C16 1131   5.319   2.272   4.978  0.0641 -0.0264 -0.7847
   24ccc    H21 1132   5.354   1.800   4.760 -0.3820 -0.5754  0.0268
   24ccc    H22 1133   4.986   1.822   4.747  1.1408  1.1255  1.1328
   24ccc    H23 1134   5.372   2.311   4.890  0.5178  0.6699 -0.2219
   24ccc    H24 1135   5.397   2.247   5.051  1.1268  0.5569 -1.6925
   24ccc     O7 1136   5.244   2.367   5.052  0.2099 -0.3746  0.3635
   24ccc    H25 1137   5.169   2.398   4.998 -0.6498  2.4270  2.8637
   24ccc     O8 1138   5.143   2.205   4.830  0.8747 -0.1065  0.4447
   24ccc    H26 1139   4.975   2.298   4.736 -1.9264  1.1202 -1.1608
   24ccc    H27 1140   5.365   2.088   4.778 -0.2450  0.8855  0.4446
   24ccc     O9 1141   5.394   1.981   4.951  0.2265 -0.2009 -0.0717
   24ccc    H28 1142   5.391   1.884   4.945 -2.0617 -0.2656  1.0958
   24ccc     N3 1143   4.994   1.898   4.679  0.5161  0.1278 -0.0866
   24ccc    C17 1144   5.051   0.915   4.034 -0.3695  0.3082  0.1262
   24ccc    C18 1145   4.994   0.857   4.169  0.3731  0.3530 -0.0133
   24ccc    H29 1146   5.158   0.891   4.038  0.3715  3.3910  2.4159
   24ccc    C19 1147   4.994   0.955   4.283 -0.3526 -0.0751  0.5400
   24ccc    C20 1148   4.955   1.100   4.240 -0.2146 -0.2351  0.3207
   24ccc    C21 1149   5.056   1.136   4.131 -0.0045  0.0712 -0.5245
   24ccc    H30 1150   4.857   1.101   4.190  0.4632 -0.2692 -1.0556
   24ccc    H31 1151   5.095   0.961   4.325  0.0639 -0.1541 -0.4384
   24ccc    H32 1152   5.158   1.129   4.171 -0.3550  0.0411  0.3902
   24ccc    O10 1153   5.039   1.263   4.078 -1.2125  0.1214  0.1575
   24ccc    O11 1154   4.895   0.908   4.374  0.3983 -0.1602 -0.1929
   24ccc    C22 1155   5.003   0.852   3.906  1.0870  0.3185  0.5083
   24ccc    H33 1156   4.886   0.984   4.433 -0.2250 -0.4319  0.0738
   24ccc    H34 1157   5.040   1.166   4.422  0.6913  1.7294  1.1645
   24ccc    H35 1158   5.016   0.743   3.905  3.4264  0.4841  2.6631
   24ccc    H36 1159   5.050   0.894   3.816 -0.0965  1.5354  0.4271
   24ccc    O12 1160   4.858   0.874   3.884 -0.4628 -0.2573 -0.3312
   24ccc    H37 1161   4.837   0.887   3.790 -0.8319  0.5701 -0.1434
   24ccc    O13 1162   5.035   1.058   4.018  0.1819  0.1071  0.1394
   24ccc    H38 1163   4.977   1.242   4.006  1.3235 -1.0293 -1.8741
   24ccc    H39 1164   4.888   0.840   4.146 -0.0709  0.2546  1.9182
   24ccc     O5 1165   5.064   0.734   4.207  0.4348 -0.4054  0.3138
   24ccc    H40 1166   4.999   0.692   4.266  2.3515  0.6914  3.4414
   24ccc     N4 1167   4.958   1.183   4.364  0.6605 -0.2380  0.5788
   24ccc    H41 1168   4.755   1.522   4.342 -1.8019 -0.3541 -0.3379
   25ccc     N1 1169   3.625   1.971   4.520 -0.3264  0.3137  0.4788
   25ccc     H4 1170   3.643   2.068   4.541 -0.0165 -0.2060  2.8815
   25ccc     C3 1171   3.499   1.921   4.567 -0.1478 -0.1854  1.2551
   25ccc     H5 1172   3.420   1.984   4.524  0.1915 -0.0550  0.8148
   25ccc     C4 1173   3.489   1.919   4.723  0.1342 -0.2462 -0.4244
   25ccc     H6 1174   3.478   1.824   4.522 -0.2547  0.2970  0.2333
   25ccc     H7 1175   3.384   1.909   4.756  0.2291  1.2195  0.3881
   25ccc     H8 1176   3.505   2.016   4.770  0.0550 -0.1810 -0.5302
   25ccc     N2 1177   3.564   1.809   4.796  0.1526  0.3979  0.4648
   25ccc     C5 1178   3.507   1.662   4.767 -0.5185  0.8692 -0.0559
   25ccc     C6 1179   3.578   1.828   4.946  0.2618  1.1707  0.0625
   25ccc     H9 1180   3.481   1.853   4.990  0.2325 -1.8954  2.0523
   25ccc     C7 1181   3.693   1.920   4.982 -0.5272  0.6382 -0.0386
   25ccc    H10 1182   3.600   1.732   4.995 -1.6784  0.8854  0.4550
   25ccc    H11 1183   3.696   1.928   5.091 -1.6241  0.7960 -0.0122
   25ccc    H12 1184   3.688   2.026   4.954  1.7441  1.2638  1.6472
   25ccc     C8 1185   3.831   1.877   4.934 -0.3516  0.0243 -0.7276
   25ccc     O2 1186   3.858   1.768   4.880 -0.1730 -0.2325  0.8831
   25ccc    H13 1187   3.483   1.646   4.661 -0.7916 -0.7608  0.2242
   25ccc    H14 1188   3.412   1.646   4.820  0.9143 -0.2165  2.3327
   25ccc     C9 1189   3.605   1.550   4.799  0.4776 -0.5826  0.6539
   25ccc    H15 1190   3.551   1.454   4.798 -0.2351 -0.1925  1.5247
   25ccc    H16 1191   3.635   1.566   4.903  0.7147  0.7208  0.4011
   25ccc    C10 1192   3.723   1.545   4.707 -0.2817 -0.5609 -0.0848
   25ccc     O4 1193   3.747   1.638   4.627 -0.3822 -0.2405 -1.0141
   25ccc    C11 1194   4.315   1.835   4.791  0.1159  0.0713 -0.0908
   25ccc    C12 1195   4.245   1.958   4.727  0.2189 -1.1957 -0.7211
   25ccc    H17 1196   4.296   1.753   4.721 -0.7446  1.3469 -1.4118
   25ccc    C13 1197   4.094   1.968   4.762 -0.0303  0.4113  0.2001
   25ccc    C14 1198   4.070   1.960   4.914 -0.7055 -0.1565 -0.7245
   25ccc    C15 1199   4.138   1.831   4.971 -0.6875 -0.4321  0.2201
   25ccc    H18 1200   4.131   2.038   4.962  2.8436 -2.6364 -0.8020
   25ccc    H19 1201   4.038   1.894   4.704  0.5691  0.2390 -0.1587
   25ccc    H20 1202   4.090   1.744   4.925 -0.8974 -0.5369  0.6297
   25ccc     O1 1203   4.140   1.833   5.109  0.8775 -0.1552 -0.2554
   25ccc     O6 1204   4.045   2.098   4.725  0.1325  0.2344 -0.0376
   25ccc    C16 1205   4.461   1.854   4.776 -0.1828 -0.1642 -0.2370
   25ccc    H21 1206   4.079   2.161   4.790  0.1650 -0.9824  1.1691
   25ccc    H22 1207   3.915   2.056   5.003 -1.2580  0.1126  0.6965
   25ccc    H23 1208   4.487   1.938   4.841  1.0051  1.1051 -2.2378
   25ccc    H24 1209   4.473   1.878   4.669  1.0280  1.2795  0.1865
   25ccc     O7 1210   4.538   1.736   4.801 -0.4901 -0.7096 -0.0061
   25ccc    H25 1211   4.502   1.697   4.882  0.2012 -0.7589  0.2868
   25ccc     O8 1212   4.279   1.829   4.927 -0.2121  0.2648  0.0725
   25ccc    H26 1213   4.187   1.753   5.138  0.1118 -0.7683 -0.6771
   25ccc    H27 1214   4.291   2.044   4.776 -1.7844 -0.5624  0.1596
   25ccc     O9 1215   4.252   1.957   4.590  0.3464 -0.7651 -0.5569
   25ccc    H28 1216   4.336   2.005   4.576  0.4515 -0.4840  0.9235
   25ccc     N3 1217   3.932   1.970   4.951 -0.1642  0.9259 -0.3507
   25ccc    C17 1218   4.202   1.324   4.703 -0.1954  0.3725 -0.3646
   25ccc    C18 1219   4.103   1.221   4.645 -0.6192 -0.0006 -0.6030
   25ccc    H29 1220   4.206   1.322   4.813  0.6045 -0.1057 -0.3978
   25ccc    C19 1221   3.962   1.252   4.689  0.3853  0.0796 -0.2242
   25ccc    C20 1222   3.928   1.405   4.661 -0.6048  0.5928 -0.5659
   25ccc    C21 1223   4.042   1.494   4.719  0.1089  0.2912 -0.1102
   25ccc    H30 1224   3.930   1.430   4.554 -1.8197  1.3707 -0.4330
   25ccc    H31 1225   3.955   1.220   4.793  2.6961 -0.9156 -0.3158
   25ccc    H32 1226   4.046   1.495   4.829 -2.0416  0.5646  0.0026
   25ccc    O10 1227   4.033   1.631   4.681  0.3054 -0.2677 -0.1988
   25ccc    O11 1228   3.875   1.167   4.607  0.2782  0.0543  0.2597
   25ccc    C22 1229   4.348   1.297   4.659  0.5345 -0.0986  1.1972
   25ccc    H33 1230   3.793   1.153   4.658  1.0547  0.4661  1.6802
   25ccc    H34 1231   3.776   1.377   4.807  0.3029 -0.4543 -0.3181
   25ccc    H35 1232   4.345   1.296   4.549  0.0288  2.0600  1.1543
   25ccc    H36 1233   4.377   1.198   4.698 -2.0891 -0.6090  2.0700
   25ccc    O12 1234   4.443   1.386   4.712  0.1352 -0.6220 -0.1012
   25ccc    H37 1235   4.413   1.441   4.786  3.1631 -1.2202  1.7233
   25ccc    O13 1236   4.166   1.452   4.659  0.3125 -0.1574 -0.1539
   25ccc    H38 1237   3.939   1.648   4.661  0.4512  0.1458 -0.5495
   25ccc    H39 1238   4.107   1.228   4.536  0.2283  0.2809 -0.5648
   25ccc     O5 1239   4.126   1.086   4.696 -0.3778 -0.0693  0.0032
   25ccc    H40 1240   4.043   1.036   4.705 -0.9121  0.8818  0.5070
   25ccc     N4 1241   3.801   1.437   4.728  0.2304 -0.1921 -0.1439
   25ccc    H41 1242   3.661   1.815   4.762  0.4450  0.5607  1.2994
   26ccc     N1 1243   5.955   1.273   3.889  0.3109 -0.0653  0.4162
   26ccc     H4 1244   6.032   1.336   3.906 -0.0482  0.7296 -0.7656
   26ccc     C3 1245   5.904   1.202   4.005  0.9959 -0.6552  0.3761
   26ccc     H5 1246   5.804   1.163   3.985 -0.1869  1.1925  2.2292
   26ccc     C4 1247   5.912   1.287   4.133  0.4579 -0.6168  0.3720
   26ccc     H6 1248   5.955   1.105   4.011  0.8268 -0.7525  0.2322
   26ccc     H7 1249   5.901   1.393   4.109  0.1986 -0.8255 -0.4685
   26ccc     H8 1250   6.011   1.272   4.178  0.0364  1.6403  2.1958
   26ccc     N2 1251   5.810   1.262   4.243  0.1696  0.3606 -0.2084
   26ccc     C5 1252   5.674   1.321   4.207  0.0982  0.3383 -0.1158
   26ccc     C6 1253   5.872   1.300   4.377  0.9011 -0.0356 -1.1264
   26ccc     H9 1254   5.960   1.235   4.371 -0.5019 -1.8807 -3.7934
   26ccc     C7 1255   5.791   1.270   4.503 -0.0229  0.8591  0.4193
   26ccc    H10 1256   5.905   1.405   4.383  0.8043 -0.0779  1.1270
   26ccc    H11 1257   5.752   1.167   4.507 -0.0856  0.9001  0.8304
   26ccc    H12 1258   5.709   1.341   4.519 -0.7772  0.4866 -1.4626
   26ccc     C8 1259   5.869   1.291   4.634 -0.3329 -0.1893 -0.1881
   26ccc     O2 1260   5.978   1.344   4.649  0.3383 -0.5874 -0.3819
   26ccc    H13 1261   5.610   1.288   4.290  0.9065 -0.6083  0.1530
   26ccc    H14 1262   5.641   1.282   4.111 -1.2088  1.4976 -0.1756
   26ccc     C9 1263   5.658   1.473   4.199  0.3406 -0.5562  0.0370
   26ccc    H15 1264   5.703   1.512   4.106  0.7816 -1.1219  0.0059
   26ccc    H16 1265   5.717   1.521   4.278  1.4909 -0.0375 -1.1044
   26ccc    C10 1266   5.513   1.526   4.216  0.6166  0.1227  0.2206
   26ccc     O4 1267   5.421   1.467   4.264  0.2882  0.5355 -0.1505
   26ccc    C11 1268   5.926   1.084   5.131  0.8745  0.3148 -0.4085
   26ccc    C12 1269   6.017   1.037   5.017 -0.2368 -0.9831  0.6661
   26ccc    H17 1270   5.838   1.021   5.144  1.4772 -0.9458 -1.9905
   26ccc    C13 1271   5.954   1.061   4.877 -0.8109 -0.6658 -0.7009
   26ccc    C14 1272   5.879   1.203   4.872  0.6079  0.5842 -0.2505
   26ccc    C15 1273   5.786   1.224   4.996  0.3452  0.4335 -0.3440
   26ccc    H18 1274   5.948   1.284   4.898  0.0024  0.6427  1.2695
   26ccc    H19 1275   5.883   0.978   4.868 -1.9988  0.1214  0.9188
   26ccc    H20 1276   5.702   1.154   4.994  1.2552 -0.6937 -0.0572
   26ccc     O1 1277   5.752   1.359   5.006  0.1857 -0.1312 -0.0489
   26ccc     O6 1278   6.058   1.055   4.778  0.1988 -0.0154 -0.2860
   26ccc    C16 1279   5.990   1.090   5.274  0.5526  0.3890 -0.6986
   26ccc    H21 1280   6.003   1.037   4.699 -0.3879  0.7969 -0.0694
   26ccc    H22 1281   5.727   1.181   4.726 -0.8326  0.7146  2.8197
   26ccc    H23 1282   6.055   1.003   5.284 -0.0467  0.1641  1.8299
   26ccc    H24 1283   5.908   1.080   5.346 -2.1762 -2.2696 -3.8595
   26ccc     O7 1284   6.055   1.214   5.282 -0.3029 -0.0206  0.3067
   26ccc    H25 1285   5.992   1.267   5.230  0.0653 -0.4470 -0.5758
   26ccc     O8 1286   5.867   1.212   5.105 -0.3160 -0.4081 -0.3986
   26ccc    H26 1287   5.761   1.380   5.100 -0.7762 -0.4336  0.1282
   26ccc    H27 1288   6.110   1.095   5.021 -0.7196 -0.1898  0.5400
   26ccc     O9 1289   6.042   0.899   5.023  0.0582  0.3123  0.3201
   26ccc    H28 1290   6.116   0.886   5.086 -0.6858  0.2085  1.1978
   26ccc     N3 1291   5.815   1.231   4.741  0.2570 -0.2026  0.1958
   26ccc    C17 1292   5.066   1.956   4.195  0.1169 -0.6541  0.7940
   26ccc    C18 1293   5.204   2.006   4.063 -0.2971  0.0482 -0.0919
   26ccc    H29 1294   5.090   2.018   4.282  0.8432 -1.2183  1.0127
   26ccc    C19 1295   5.360   1.888   4.045  0.4650 -0.0879  0.5275
   26ccc    C20 1296   5.359   1.706   4.127  0.2163 -0.6779  0.0858
   26ccc    C21 1297   5.211   1.660   4.257  0.4401 -0.9062  0.2203
   26ccc    H30 1298   5.332   1.649   4.038 -1.0133  0.7444 -0.4900
   26ccc    H31 1299   5.440   1.943   4.095  1.0343 -0.9167  0.5322
   26ccc    H32 1300   5.255   1.649   4.357  0.9752  0.2490  0.1218
   26ccc    O10 1301   5.155   1.531   4.218 -0.4580  0.0806 -0.1325
   26ccc    O11 1302   5.416   1.895   3.914 -0.5578 -0.7719 -0.1250
   26ccc    C22 1303   4.923   2.003   4.165  0.1328 -0.1982  0.4955
   26ccc    H33 1304   5.440   1.988   3.901 -1.4808 -0.5608 -0.3583
   26ccc    H34 1305   5.572   1.679   4.107 -0.1919  2.5667  0.9417
   26ccc    H35 1306   4.904   2.098   4.217 -2.0370  0.4412 -1.2993
   26ccc    H36 1307   4.843   1.934   4.194 -0.4502 -0.1800 -0.9802
   26ccc    O12 1308   4.921   2.022   4.021  0.3423  0.7885 -0.3753
   26ccc    H37 1309   4.830   2.046   4.001  0.0207 -1.3005 -1.7649
   26ccc    O13 1310   5.075   1.789   4.274  0.0256 -0.3866 -0.4898
   26ccc    H38 1311   5.236   1.479   4.202 -0.8038  0.3260 -3.6141
   26ccc    H39 1312   5.150   2.010   3.967 -0.9813  1.5044  0.3076
   26ccc     O5 1313   5.249   2.147   4.087  0.3465 -0.4747 -0.0010
   26ccc    H40 1314   5.289   2.168   4.001  1.7934 -1.4624  0.3932
   26ccc     N4 1315   5.490   1.645   4.155 -0.2771  0.3851 -0.6109
   26ccc    H41 1316   5.797   1.160   4.246 -2.8608  0.6094 -1.7563
   27ccc     N1 1317   6.323   1.739   3.304 -0.3769  0.0220  0.2719
   27ccc     H4 1318   6.329   1.688   3.217 -0.6427 -0.4832  0.5432
   27ccc     C3 1319   6.439   1.815   3.357  0.4686  0.1651  0.7428
   27ccc     H5 1320   6.505   1.756   3.422 -0.4286 -1.9765 -0.2264
   27ccc     C4 1321   6.393   1.957   3.410 -0.2899 -0.3903 -0.0706
   27ccc     H6 1322   6.501   1.829   3.268 -2.0052  0.0041 -1.1101
   27ccc     H7 1323   6.295   1.980   3.365 -1.3955 -2.5816  1.0322
   27ccc     H8 1324   6.472   2.029   3.390 -1.0562  0.7841  0.9911
   27ccc     N2 1325   6.367   1.971   3.563 -0.1767  0.2818  0.3385
   27ccc     C5 1326   6.293   2.096   3.610  0.5456  0.6185  0.8919
   27ccc     C6 1327   6.506   1.964   3.636 -0.1425 -0.5151  0.6402
   27ccc     H9 1328   6.567   1.899   3.572 -1.3202 -0.9488 -0.0982
   27ccc     C7 1329   6.499   1.910   3.786  0.5441  0.2413  0.3771
   27ccc    H10 1330   6.559   2.059   3.635 -1.5349  0.2966  0.6936
   27ccc    H11 1331   6.440   1.980   3.845 -0.3547 -1.1571  1.2036
   27ccc    H12 1332   6.599   1.924   3.829  0.2097 -0.3560  1.3856
   27ccc     C8 1333   6.452   1.765   3.805  0.1370  0.9038 -0.3073
   27ccc     O2 1334   6.437   1.680   3.719  0.0540 -0.5192 -0.3770
   27ccc    H13 1335   6.351   2.177   3.563  0.0040  1.2183  1.2286
   27ccc    H14 1336   6.311   2.105   3.718  0.8528  1.3073  0.7923
   27ccc     C9 1337   6.139   2.102   3.575 -0.4177 -0.3679 -0.0186
   27ccc    H15 1338   6.131   2.090   3.466 -1.1365 -0.4974  0.0442
   27ccc    H16 1339   6.093   2.198   3.598  1.3111  0.9429 -1.7317
   27ccc    C10 1340   6.063   1.994   3.651 -0.1777  0.3911 -0.0337
   27ccc     O4 1341   6.115   1.906   3.717 -0.6626 -0.4970  0.1847
   27ccc    C11 1342   6.314   1.305   3.984 -0.3943  0.4701 -0.2958
   27ccc    C12 1343   6.441   1.360   4.048  0.5988  0.7345 -0.2290
   27ccc    H17 1344   6.339   1.273   3.883 -0.1634  0.0726 -0.1162
   27ccc    C13 1345   6.481   1.504   3.990 -0.3531  0.2012  0.3330
   27ccc    C14 1346   6.368   1.601   3.981 -0.3642  0.0957 -0.9413
   27ccc    C15 1347   6.247   1.532   3.901  0.3329  0.1372  0.5176
   27ccc    H18 1348   6.337   1.604   4.086 -0.9707  1.2456 -1.1428
   27ccc    H19 1349   6.515   1.484   3.888 -0.2373 -0.1047  0.4313
   27ccc    H20 1350   6.267   1.515   3.795  2.5495 -0.8390  1.0374
   27ccc     O1 1351   6.127   1.607   3.907 -0.2069 -0.1684  0.5226
   27ccc     O6 1352   6.587   1.559   4.074  0.8259 -0.4499 -0.2046
   27ccc    C16 1353   6.266   1.182   4.064  0.6537  0.0227 -0.3164
   27ccc    H21 1354   6.664   1.502   4.054  0.9621 -0.7841  1.2224
   27ccc    H22 1355   6.446   1.804   4.002  3.2752 -0.5145 -0.2698
   27ccc    H23 1356   6.189   1.204   4.139  1.1677 -2.9899  1.2587
   27ccc    H24 1357   6.342   1.125   4.118 -2.2487 -0.9349  3.1630
   27ccc     O7 1358   6.208   1.083   3.975 -0.5493 -0.2103  0.5149
   27ccc    H25 1359   6.282   1.048   3.923 -0.8405 -0.2444  0.1188
   27ccc     O8 1360   6.211   1.405   3.970 -0.2251 -0.2518 -0.3247
   27ccc    H26 1361   6.117   1.629   4.001  1.3176  0.9850  0.4542
   27ccc    H27 1362   6.431   1.367   4.157 -1.8315 -0.5148 -0.2936
   27ccc     O9 1363   6.549   1.270   4.013  0.4622 -0.2691  0.4533
   27ccc    H28 1364   6.613   1.275   4.085  1.3975 -2.3883 -0.1356
   27ccc     N3 1365   6.414   1.738   3.931  0.7180  0.1449  0.1666
   27ccc    C17 1366   5.756   1.644   3.817 -0.7881  0.5560  0.0648
   27ccc    C18 1367   5.730   1.786   3.879 -0.1905 -0.1715  0.6818
   27ccc    H29 1368   5.838   1.601   3.876 -1.3196 -1.1305 -0.3828
   27ccc    C19 1369   5.837   1.891   3.840 -0.1434  0.2318  0.1766
   27ccc    C20 1370   5.840   1.889   3.684  0.3435  0.1522 -0.4306
   27ccc    C21 1371   5.881   1.747   3.628  0.5691 -1.1961 -0.4167
   27ccc    H30 1372   5.741   1.906   3.641  0.3918 -0.1454 -0.6616
   27ccc    H31 1373   5.934   1.857   3.876 -0.1343  0.1025  0.0359
   27ccc    H32 1374   5.983   1.728   3.664  0.6807  2.1063  1.2865
   27ccc    O10 1375   5.867   1.752   3.488  0.0282  0.0551 -0.1073
   27ccc    O11 1376   5.801   2.020   3.894 -0.7827  0.4637  0.2030
   27ccc    C22 1377   5.643   1.539   3.824 -1.0228  0.1369 -0.2027
   27ccc    H33 1378   5.866   2.084   3.859 -0.7839 -1.5604 -4.1116
   27ccc    H34 1379   5.876   2.070   3.595 -1.9832 -0.0197  0.5922
   27ccc    H35 1380   5.602   1.536   3.722 -0.2813  1.3240 -0.5565
   27ccc    H36 1381   5.567   1.589   3.885  0.6693  2.7225 -0.0647
   27ccc    O12 1382   5.678   1.406   3.860 -0.3139  0.9111  0.0547
   27ccc    H37 1383   5.598   1.357   3.886  1.0310 -0.4183  1.9936
   27ccc    O13 1384   5.789   1.651   3.672 -0.5863  0.2843  0.6614
   27ccc    H38 1385   5.772   1.745   3.465  0.0284  0.7421 -0.3327
   27ccc    H39 1386   5.634   1.824   3.845  1.0146  1.3325 -1.1948
   27ccc     O5 1387   5.725   1.776   4.022  0.7369  0.4386  0.0507
   27ccc    H40 1388   5.757   1.859   4.061  0.1037  1.1122 -0.8447
   27ccc     N4 1389   5.930   1.992   3.633 -0.1669  0.1028 -1.5281
   27ccc    H41 1390   6.315   1.890   3.600 -0.1420 -0.5818 -1.3882
   28ccc     N1 1391   5.294   2.258   2.577  0.8264 -0.9006 -0.6598
   28ccc     H4 1392   5.195   2.275   2.563  1.1301 -0.2784 -2.3547
   28ccc     C3 1393   5.352   2.254   2.713 -0.2143 -0.5037  0.1870
   28ccc     H5 1394   5.355   2.149   2.745 -0.6746 -1.0664 -1.5121
   28ccc     C4 1395   5.267   2.345   2.810 -0.2370 -0.6175  0.3771
   28ccc     H6 1396   5.450   2.302   2.707 -0.8349  0.7667 -0.2517
   28ccc     H7 1397   5.161   2.320   2.792 -0.8352  0.3404  2.3145
   28ccc     H8 1398   5.286   2.450   2.786  1.0839 -1.2421 -1.5391
   28ccc     N2 1399   5.296   2.327   2.957  0.2882 -0.0533 -0.3626
   28ccc     C5 1400   5.201   2.405   3.048 -0.6501 -0.2181 -0.5454
   28ccc     C6 1401   5.441   2.365   2.993 -0.1543 -0.0878 -0.2862
   28ccc     H9 1402   5.513   2.319   2.925 -0.3213 -0.0903 -0.4590
   28ccc     C7 1403   5.498   2.341   3.130  0.5148 -0.1401 -0.1243
   28ccc    H10 1404   5.457   2.470   2.965 -0.3626  0.1302  0.3822
   28ccc    H11 1405   5.441   2.374   3.218  0.4944 -1.1275  0.2521
   28ccc    H12 1406   5.596   2.389   3.139  0.1291  0.4820  0.9553
   28ccc     C8 1407   5.518   2.193   3.150  0.0139  0.3826 -0.3345
   28ccc     O2 1408   5.422   2.117   3.163  0.4153  0.1867 -0.5949
   28ccc    H13 1409   5.170   2.498   3.000 -0.0103  0.5787  0.5303
   28ccc    H14 1410   5.248   2.435   3.142  0.4460 -2.7631 -0.1907
   28ccc     C9 1411   5.079   2.325   3.101 -1.2279  0.4911 -0.8702
   28ccc    H15 1412   5.042   2.357   3.199  1.7807 -1.6217  1.1421
   28ccc    H16 1413   5.103   2.219   3.118 -1.0656  0.6825  0.1635
   28ccc    C10 1414   4.973   2.327   2.999 -0.3589  0.6339 -0.2104
   28ccc     O4 1415   4.940   2.239   2.919 -0.3262 -0.2413  0.9888
   28ccc    C11 1416   5.900   1.848   3.019 -0.0473 -0.0302 -0.2060
   28ccc    C12 1417   5.851   1.841   3.169 -0.4822  0.3533 -0.0370
   28ccc    H17 1418   5.951   1.944   3.010 -2.9140  1.5799 -0.4654
   28ccc    C13 1419   5.784   1.972   3.211  0.0504  0.4385 -0.3012
   28ccc    C14 1420   5.677   2.011   3.113  0.3911 -0.9680  0.2493
   28ccc    C15 1421   5.727   1.988   2.968 -0.0720 -0.5010  0.8051
   28ccc    H18 1422   5.589   1.946   3.124 -0.3839 -0.0308 -0.1693
   28ccc    H19 1423   5.858   2.053   3.215  0.5950  0.0503 -1.6646
   28ccc    H20 1424   5.798   2.071   2.956 -1.3970  0.7612  1.4196
   28ccc     O1 1425   5.621   1.998   2.869 -0.2020  0.6480 -0.6537
   28ccc     O6 1426   5.720   1.943   3.334 -0.4063  0.2417  0.3918
   28ccc    C16 1427   5.989   1.736   2.964  0.2653  0.4145  0.1094
   28ccc    H21 1428   5.685   2.028   3.367 -2.1915 -0.2434 -0.1372
   28ccc    H22 1429   5.719   2.215   3.116  0.0918  0.1925  2.6575
   28ccc    H23 1430   6.079   1.734   3.026  0.0229  1.0454  0.4913
   28ccc    H24 1431   6.007   1.765   2.860  2.3102  1.9111  0.8059
   28ccc     O7 1432   5.930   1.610   2.978 -0.0870 -0.5235  0.1185
   28ccc    H25 1433   5.989   1.537   2.951  0.5441 -0.5380  1.4521
   28ccc     O8 1434   5.778   1.861   2.945  0.3961  0.3573  0.0088
   28ccc    H26 1435   5.654   2.069   2.811  4.0729 -1.1425 -0.8154
   28ccc    H27 1436   5.782   1.758   3.190 -0.1270  0.5106  1.8851
   28ccc     O9 1437   5.964   1.824   3.252 -0.1452  0.0521  0.0437
   28ccc    H28 1438   5.924   1.810   3.340 -1.0685 -0.1551 -0.3980
   28ccc     N3 1439   5.644   2.149   3.139 -0.4608 -0.2997 -0.2351
   28ccc    C17 1440   4.573   2.640   2.805 -0.0332 -0.0031  1.0093
   28ccc    C18 1441   4.716   2.651   2.736  0.6155  0.3714 -0.0675
   28ccc    H29 1442   4.558   2.711   2.887 -1.2258 -0.6179  1.3543
   28ccc    C19 1443   4.828   2.614   2.834  0.0777  0.0135  0.5014
   28ccc    C20 1444   4.798   2.482   2.903  0.0427  0.3760 -0.7937
   28ccc    C21 1445   4.658   2.473   2.965  0.1118  0.4154 -0.2236
   28ccc    H30 1446   4.785   2.409   2.822  0.1181 -0.8509  0.2479
   28ccc    H31 1447   4.828   2.698   2.905  0.0519  1.7168 -1.3989
   28ccc    H32 1448   4.643   2.536   3.054  0.4788 -0.1296  0.2332
   28ccc    O10 1449   4.624   2.338   2.999  0.5014 -0.3582 -0.2835
   28ccc    O11 1450   4.954   2.598   2.760  0.3406  0.1453  0.0471
   28ccc    C22 1451   4.458   2.662   2.700 -0.1671 -0.1272  0.1325
   28ccc    H33 1452   5.021   2.635   2.820  1.5062  0.3542 -1.3368
   28ccc    H34 1453   4.935   2.529   3.053  1.6283  0.0997 -0.9540
   28ccc    H35 1454   4.476   2.760   2.655  2.1462 -2.0252 -3.5833
   28ccc    H36 1455   4.360   2.666   2.750 -0.0615  1.1886  0.2792
   28ccc    O12 1456   4.460   2.578   2.589  0.1625 -0.4416 -0.0803
   28ccc    H37 1457   4.390   2.513   2.607  0.8768 -0.7795  1.7415
   28ccc    O13 1458   4.565   2.513   2.865 -0.1530 -0.4091 -0.6692
   28ccc    H38 1459   4.541   2.347   3.051  0.7419 -0.5456  0.1375
   28ccc    H39 1460   4.715   2.576   2.657 -0.1338 -0.7642  0.9988
   28ccc     O5 1461   4.742   2.776   2.670  0.4263 -0.3973 -0.1087
   28ccc    H40 1462   4.836   2.770   2.648  0.5056  0.7493 -0.1176
   28ccc     N4 1463   4.908   2.447   2.999  0.0569 -0.2095  0.2307
   28ccc    H41 1464   5.281   2.226   2.969 -2.1188  0.3476  0.6657
   29ccc     N1 1465   5.745   2.548   2.181  0.4138 -0.6636 -0.1367
   29ccc     H4 1466   5.790   2.556   2.091 -0.2727  0.1922 -0.4177
   29ccc     C3 1467   5.789   2.648   2.285  0.0461  0.9023  0.5424
   29ccc     H5 1468   5.838   2.731   2.233  0.2326 -0.2385 -1.1933
   29ccc     C4 1469   5.891   2.584   2.385 -0.3650 -0.4640  0.2369
   29ccc     H6 1470   5.697   2.677   2.336 -0.3458 -0.7319  0.8040
   29ccc     H7 1471   5.840   2.521   2.459 -1.7536 -0.0674 -0.3444
   29ccc     H8 1472   5.925   2.663   2.452 -0.3047 -1.0625  0.9180
   29ccc     N2 1473   6.015   2.512   2.332  0.2945  0.0443 -0.5785
   29ccc     C5 1474   6.083   2.438   2.442 -0.8248 -0.0729 -1.1317
   29ccc     C6 1475   6.106   2.612   2.260 -0.1125 -0.4410 -0.1848
   29ccc     H9 1476   6.050   2.653   2.175  0.6446 -0.3890 -0.6641
   29ccc     C7 1477   6.240   2.548   2.203  0.3215  0.4164 -0.0507
   29ccc    H10 1478   6.129   2.698   2.324 -1.2270 -1.0114  1.0193
   29ccc    H11 1479   6.214   2.465   2.137 -1.1936 -1.6458  2.8941
   29ccc    H12 1480   6.294   2.502   2.287  0.2655  0.0363 -0.2212
   29ccc     C8 1481   6.328   2.646   2.126 -0.0845 -0.2595  0.3586
   29ccc     O2 1482   6.303   2.762   2.097 -0.4011  0.2730  0.6426
   29ccc    H13 1483   6.032   2.460   2.537  0.0894 -1.8078 -0.1764
   29ccc    H14 1484   6.183   2.481   2.459 -1.2134  0.9209 -1.2806
   29ccc     C9 1485   6.090   2.285   2.422 -0.0111  0.9210  0.1746
   29ccc    H15 1486   6.154   2.243   2.501 -0.0801 -1.2710 -0.8854
   29ccc    H16 1487   6.137   2.253   2.329  1.2547 -2.1895  1.7267
   29ccc    C10 1488   5.953   2.211   2.430 -0.0900 -0.2137 -0.0612
   29ccc     O4 1489   5.848   2.274   2.446  0.0789 -0.2449 -0.5398
   29ccc    C11 1490   6.758   2.716   1.797 -0.3419 -0.0116  0.2714
   29ccc    C12 1491   6.603   2.750   1.762  0.3903 -0.2844 -0.7725
   29ccc    H17 1492   6.769   2.620   1.744  1.3283  0.4594 -0.2918
   29ccc    C13 1493   6.505   2.661   1.846  0.1601  0.0331  0.5219
   29ccc    C14 1494   6.542   2.667   1.992 -0.5969 -0.6409 -0.7302
   29ccc    C15 1495   6.689   2.617   2.001  0.2500  0.0135  0.1896
   29ccc    H18 1496   6.550   2.769   2.030  0.9736 -1.4279  1.2407
   29ccc    H19 1497   6.523   2.557   1.815  0.6831  0.5223 -0.9043
   29ccc    H20 1498   6.711   2.519   1.957  1.2518 -0.1103  0.9447
   29ccc     O1 1499   6.728   2.602   2.134 -0.4969 -0.4698 -0.4254
   29ccc     O6 1500   6.370   2.708   1.825 -0.4484  0.1666 -0.1386
   29ccc    C16 1501   6.867   2.799   1.725 -0.1143  0.5469  0.1080
   29ccc    H21 1502   6.327   2.729   1.910  2.0547 -1.6048  1.7295
   29ccc    H22 1503   6.456   2.494   2.066  3.1293  0.4051  0.8759
   29ccc    H23 1504   6.866   2.767   1.621  1.2365 -2.3270  0.8841
   29ccc    H24 1505   6.967   2.768   1.759 -0.0276  1.1548  0.4362
   29ccc     O7 1506   6.868   2.937   1.747 -0.3513 -0.7005 -0.5373
   29ccc    H25 1507   6.961   2.965   1.750 -0.6621  0.4062  1.5814
   29ccc     O8 1508   6.779   2.712   1.937 -0.6391  0.6347 -0.5859
   29ccc    H26 1509   6.819   2.567   2.131  0.2626  1.1814  1.3325
   29ccc    H27 1510   6.593   2.851   1.802 -0.4382 -0.4168 -0.6369
   29ccc     O9 1511   6.564   2.730   1.626 -0.0030  0.1159 -0.2120
   29ccc    H28 1512   6.468   2.747   1.628 -0.0680 -0.2904  0.7345
   29ccc     N3 1513   6.441   2.594   2.076  0.1833  0.2461 -0.6377
   29ccc    C17 1514   6.113   1.722   2.594 -0.1114 -0.3618 -0.2873
   29ccc    C18 1515   6.105   1.731   2.438 -0.2101 -0.0418 -0.7112
   29ccc    H29 1516   6.031   1.656   2.625 -2.4107  2.1552 -0.5898
   29ccc    C19 1517   6.024   1.848   2.382  0.2218  0.5197  0.0850
   29ccc    C20 1518   6.030   1.977   2.469  0.1466 -0.4356  0.3380
   29ccc    C21 1519   5.999   1.945   2.618  0.0639  0.2758 -0.3772
   29ccc    H30 1520   6.135   2.009   2.476 -0.5813  2.8393 -1.5452
   29ccc    H31 1521   5.916   1.828   2.389  0.3432 -0.0824  0.3806
   29ccc    H32 1522   5.901   1.905   2.645 -0.1484  0.9010 -0.1981
   29ccc    O10 1523   6.008   2.062   2.697 -0.1383 -0.2843 -0.2531
   29ccc    O11 1524   6.052   1.873   2.245 -0.2096 -0.0563 -0.5707
   29ccc    C22 1525   6.238   1.663   2.667  0.2468 -0.1460  0.0932
   29ccc    H33 1526   6.070   1.784   2.212  1.7619  0.1396 -0.1356
   29ccc    H34 1527   5.846   2.049   2.408  0.3818 -0.9266 -1.7823
   29ccc    H35 1528   6.253   1.562   2.627 -0.8912 -0.2670 -0.0617
   29ccc    H36 1529   6.211   1.662   2.773 -0.5896  1.9440 -0.0426
   29ccc    O12 1530   6.353   1.743   2.637 -0.2310  0.1194 -0.1016
   29ccc    H37 1531   6.332   1.828   2.680 -1.2715 -0.9471  1.5941
   29ccc    O13 1532   6.099   1.853   2.660 -0.1795  0.4641 -0.0225
   29ccc    H38 1533   6.103   2.085   2.693  0.3586 -2.2628 -0.8063
   29ccc    H39 1534   6.205   1.744   2.394  0.7804 -1.5668  0.9518
   29ccc     O5 1535   6.046   1.610   2.397 -0.1485 -0.0092  0.0846
   29ccc    H40 1536   6.101   1.530   2.404 -2.9423 -2.4008 -2.1938
   29ccc     N4 1537   5.942   2.083   2.409 -0.0411  0.3598 -0.0938
   29ccc    H41 1538   5.988   2.439   2.264 -0.9425  0.8319 -0.9578
   30SOL     OW 1539   1.747   3.315   2.342  0.0985  0.1206 -0.0077
   30SOL    HW1 1540   1.692   3.308   2.264  1.3525  1.2639 -1.0651
   30SOL    HW2 1541   1.829   3.272   2.317 -0.1314 -1.1916  1.3883
   31SOL     OW 1542   4.487   2.577   5.299 -0.6966  0.1079 -0.1573
   31SOL    HW1 1543   4.496   2.596   5.392  3.5476 -1.8119  0.0316
   31SOL    HW2 1544   4.549   2.635   5.256  0.2580 -1.6681 -1.2831
   32SOL     OW 1545   4.822   4.998   1.812 -0.0326 -0.1910 -0.2894
   32SOL    HW1 1546   4.878   5.070   1.840  0.5221 -0.7325  0.0488
   32SOL    HW2 1547   4.757   4.988   1.881  0.1836 -0.3126 -0.0995
   33SOL     OW 1548   4.459   6.456   1.530  0.2655  0.0161 -0.5216
   33SOL    HW1 1549   4.528   6.459   1.596  0.5317  0.0640 -0.7998
   33SOL    HW2 1550   4.496   6.502   1.455  1.3806 -2.9676 -1.9920
   34SOL     OW 1551   5.497   5.912   3.418  0.2054  0.2562 -0.3881
   34SOL    HW1 1552   5.581   5.954   3.404  1.1502 -0.3986  2.5449
   34SOL    HW2 1553   5.506   5.826   3.377  0.6013  0.5318 -0.8863
   35SOL     OW 1554   5.620   0.260   1.831 -0.1154  0.3473 -0.3660
   35SOL    HW1 1555   5.586   0.271   1.919 -0.8665  2.1472 -0.8299
   35SOL    HW2 1556   5.712   0.288   1.837  0.1277 -0.5149  0.0383
   36SOL     OW 1557   1.805   2.916   4.512  0.2661 -0.2385 -0.2816
   36SOL    HW1 1558   1.820   3.007   4.486  1.6100 -0.3648 -0.0561
   36SOL    HW2 1559   1.741   2.921   4.582  0.8699  0.6204  0.2346
   37SOL     OW 1560   4.991   4.681   6.916 -0.1813  0.1757 -0.0942
   37SOL    HW1 1561   4.991   4.639   7.002 -0.7311  0.7146  0.1820
   37SOL    HW2 1562   4.942   4.762   6.930 -1.1457 -0.2028 -1.1515
   38SOL     OW 1563   4.150   1.501   1.898 -1.0740 -0.0120 -0.4603
   38SOL    HW1 1564   4.192   1.549   1.969 -1.2020 -0.0641 -0.3508
   38SOL    HW2 1565   4.063   1.541   1.890 -1.0586 -0.0043 -0.5885
   39SOL     OW 1566   2.086   6.091   1.572 -0.0229 -0.4847  0.6826
   39SOL    HW1 1567   2.006   6.113   1.620  0.3268 -0.4531  1.2598
   39SOL    HW2 1568   2.055   6.056   1.489 -0.6300  0.2415  0.5908
   40SOL     OW 1569   2.681   2.353   4.748 -0.2937 -0.2489  0.1228
   40SOL    HW1 1570   2.712   2.275   4.702 -2.0642 -0.0124 -1.6208
   40SOL    HW2 1571   2.739   2.423   4.718 -0.6914 -0.3237 -0.8563
   41SOL     OW 1572   0.581   3.515   4.640  0.2030  0.3670 -0.0936
   41SOL    HW1 1573   0.657   3.573   4.647 -0.9961  2.0098  0.0182
   41SOL    HW2 1574   0.587   3.479   4.551  1.5513 -0.2120  0.2122
   42SOL     OW 1575   2.551   3.096   4.562  0.0649  0.4664  0.4712
   42SOL    HW1 1576   2.495   3.049   4.623 -0.4067 -0.1709 -0.4246
   42SOL    HW2 1577   2.556   3.185   4.598 -1.0054  0.3701  0.9104
   43SOL     OW 1578   4.429   2.774   0.862 -0.3718  0.3696  0.1048
   43SOL    HW1 1579   4.453   2.833   0.790  0.0672 -0.2153 -0.2412
   43SOL    HW2 1580   4.335   2.785   0.872 -0.9689 -1.4829 -2.3726
   44SOL     OW 1581   7.057   4.105   5.459  0.4237  1.2545  0.5054
   44SOL    HW1 1582   7.029   4.175   5.518  1.9646  0.2586  2.5362
   44SOL    HW2 1583   6.980   4.087   5.405 -1.1410  2.1435  2.3029
   45SOL     OW 1584   4.596   3.181   0.740 -0.0044  0.7056 -0.0865
   45SOL    HW1 1585   4.598   3.255   0.801  4.9114 -1.4061  2.9615
   45SOL    HW2 1586   4.685   3.180   0.702 -1.1129 -1.4817 -3.0200
   46SOL     OW 1587   0.900   6.300   2.675 -0.1298  0.0297  0.1391
   46SOL    HW1 1588   0.826   6.287   2.616 -0.9458  0.8301  0.9573
   46SOL    HW2 1589   0.974   6.318   2.617 -0.8215  0.4203 -0.6477
   47SOL     OW 1590   3.668   2.036   3.720  0.1610 -0.2499  0.1594
   47SOL    HW1 1591   3.689   1.979   3.794  0.1381 -0.6261 -0.1220
   47SOL    HW2 1592   3.742   2.096   3.715  0.2670 -0.3619  0.3518
   48SOL     OW 1593   6.812   0.101   1.145  0.3810 -0.0746 -0.6463
   48SOL    HW1 1594   6.793   0.144   1.228 -0.2562  0.5994 -1.1267
   48SOL    HW2 1595   6.900   0.066   1.156  0.4785  0.3918  0.1572
   49SOL     OW 1596   6.087   1.309   0.910  0.5648  0.0622 -0.4232
   49SOL    HW1 1597   6.030   1.252   0.858  2.1577 -1.3145 -0.7757
   49SOL    HW2 1598   6.063   1.291   1.001  0.2098 -0.2606 -0.5784
   50SOL     OW 1599   0.455   4.728   6.268  0.0423 -0.3228  0.1572
   50SOL    HW1 1600   0.542   4.717   6.306  0.9110  1.1696 -1.2616
   50SOL    HW2 1601   0.419   4.805   6.312  0.1114  0.0054 -0.3393
   51SOL     OW 1602   3.653   6.844   2.345  0.0828 -0.0021 -0.0417
   51SOL    HW1 1603   3.739   6.866   2.382  0.7339  2.2084 -2.5505
   51SOL    HW2 1604   3.670   6.770   2.287  0.0651 -0.2207  0.2284
   52SOL     OW 1605   5.120   6.876   3.092 -0.4671  0.5219 -0.0355
   52SOL    HW1 1606   5.203   6.830   3.101 -0.7314 -0.4626 -2.0346
   52SOL    HW2 1607   5.119   6.940   3.163  0.4610 -1.7068  2.0942
   53SOL     OW 1608   3.123   2.911   2.513 -0.4764  0.0102 -0.5926
   53SOL    HW1 1609   3.125   2.921   2.418  1.3123  2.5810 -0.3989
   53SOL    HW2 1610   3.048   2.963   2.540 -0.7836 -0.4467 -0.5529
   54SOL     OW 1611   2.399   3.022   5.410 -0.2619 -0.2481 -0.0704
   54SOL    HW1 1612   2.465   2.962   5.445  0.1116  0.8740  1.2319
   54SOL    HW2 1613   2.359   3.061   5.488 -1.6645 -0.0321 -0.8624
   55SOL     OW 1614   0.363   7.003   4.227  0.1924 -0.0149  0.2864
   55SOL    HW1 1615   0.363   6.917   4.186  2.0207 -0.1348  0.4670
   55SOL    HW2 1616   0.316   7.059   4.165  0.4033 -0.8030 -0.6111
   56SOL     OW 1617   2.667   2.264   3.894  0.1339 -0.1328  0.1724
   56SOL    HW1 1618   2.705   2.311   3.820  1.7713 -2.8105 -0.7967
   56SOL    HW2 1619   2.607   2.201   3.854  1.1474 -1.7132  1.0584
   57SOL     OW 1620   2.717   4.306   6.867  0.3271 -0.6538  0.1155
   57SOL    HW1 1621   2.749   4.330   6.955  0.0016 -1.0667  0.3503
   57SOL    HW2 1622   2.791   4.261   6.826  1.0227  0.8859 -0.4069
   58SOL     OW 1623   4.243   1.446   0.118  0.3702  0.1708 -0.2140
   58SOL    HW1 1624   4.207   1.512   0.177  0.6325  0.3761 -0.2816
   58SOL    HW2 1625   4.208   1.363   0.150  0.2453  0.3168  0.0269
   59SOL     OW 1626   6.486   4.866   0.776 -0.1596  0.0763  0.4649
   59SOL    HW1 1627   6.458   4.909   0.856  0.9027 -0.4358  1.1411
   59SOL    HW2 1628   6.496   4.937   0.712 -0.3740  0.5731  0.9778
   60SOL     OW 1629   5.444   5.835   0.345 -0.1400  0.1192  0.1820
   60SOL    HW1 1630   5.393   5.913   0.323  1.0864  0.7279 -0.6412
   60SOL    HW2 1631   5.393   5.762   0.308 -0.4793  0.7000 -0.5284
   61SOL     OW 1632   1.329   2.994   3.454  0.1602 -0.0078  0.2039
   61SOL    HW1 1633   1.395   3.063   3.447  1.5545 -1.3311 -0.2389
   61SOL    HW2 1634   1.360   2.939   3.526  0.6766 -1.7800 -1.2982
   62SOL     OW 1635   5.643   6.959   5.978  0.2113  0.7841  0.0477
   62SOL    HW1 1636   5.616   7.022   5.911  2.2437  2.6538  0.8895
   62SOL    HW2 1637   5.704   6.901   5.933 -0.7511  0.0940 -0.4223
   63SOL     OW 1638   0.064   3.685   4.735 -0.0628  0.2570  0.1632
   63SOL    HW1 1639   0.149   3.642   4.729 -0.6457 -0.7182 -2.3674
   63SOL    HW2 1640   0.079   3.771   4.696  0.2929  1.1201  2.0756
   64SOL     OW 1641   3.236   4.914   7.116 -0.4742  0.7783  0.3245
   64SOL    HW1 1642   3.198   4.949   7.036 -2.1607 -2.4962 -0.4773
   64SOL    HW2 1643   3.301   4.850   7.086 -1.2584 -0.6279  1.4790
   65SOL     OW 1644   2.895   2.206   0.875 -0.5375 -0.4610  0.2621
   65SOL    HW1 1645   2.878   2.300   0.864 -0.3939 -0.4083  0.4708
   65SOL    HW2 1646   2.923   2.177   0.789 -3.3376 -0.9352 -0.5630
   66SOL     OW 1647   0.360   1.925   1.956  0.2922  0.3065 -0.4931
   66SOL    HW1 1648   0.360   1.830   1.963  1.3319  0.2840 -0.5441
   66SOL    HW2 1649   0.341   1.943   1.864  0.6581  0.1281 -0.6045
   67SOL     OW 1650   5.084   6.316   2.384 -0.1690 -0.3807 -0.3852
   67SOL    HW1 1651   5.042   6.263   2.453 -0.1732  1.5455  1.2003
   67SOL    HW2 1652   5.010   6.357   2.339 -0.1168  0.0817 -0.0586
   68SOL     OW 1653   2.881   5.142   1.419 -0.3394 -0.3902 -0.1390
   68SOL    HW1 1654   2.974   5.122   1.433 -0.1934  0.0529 -0.4473
   68SOL    HW2 1655   2.847   5.160   1.507 -0.5058 -2.0520  0.1770
   69SOL     OW 1656   5.317   6.615   2.318  0.3031  0.4935 -0.4552
   69SOL    HW1 1657   5.323   6.519   2.324  0.8529  0.6169  1.8849
   69SOL    HW2 1658   5.405   6.642   2.290  0.6967  0.3733  0.5938
   70SOL     OW 1659   4.067   1.752   2.462 -0.5585  0.2045  0.3935
   70SOL    HW1 1660   4.038   1.804   2.537  1.6558 -1.0949  2.2916
   70SOL    HW2 1661   4.093   1.817   2.397  0.0102  1.4721  1.8107
   71SOL     OW 1662   3.285   5.621   6.914  0.0862 -0.2253  0.1474
   71SOL    HW1 1663   3.248   5.624   7.002  0.1235  0.3611  0.1454
   71SOL    HW2 1664   3.379   5.631   6.927  0.2060 -1.2057  0.1134
   72SOL     OW 1665   4.655   3.942   0.072 -0.4071 -0.1083 -0.6269
   72SOL    HW1 1666   4.664   3.954  -0.023  0.4746 -0.5950 -0.6132
   72SOL    HW2 1667   4.704   4.014   0.110  0.3810 -0.6645 -0.5536
   73SOL     OW 1668   2.754   5.169   1.657  0.6978  0.7818  0.3522
   73SOL    HW1 1669   2.739   5.084   1.697  0.6387 -0.5382 -2.2646
   73SOL    HW2 1670   2.677   5.221   1.682 -0.4352 -0.7125  0.1075
   74SOL     OW 1671   3.036   6.610   1.451 -0.5782 -0.0491 -0.0390
   74SOL    HW1 1672   3.064   6.620   1.542 -1.1303 -0.9517  0.2499
   74SOL    HW2 1673   2.941   6.605   1.455 -0.6865  0.9912 -0.7946
   75SOL     OW 1674   1.112   5.156   2.791  0.2203 -0.7317 -0.4918
   75SOL    HW1 1675   1.035   5.205   2.817  0.1939 -0.5817 -0.8431
   75SOL    HW2 1676   1.140   5.197   2.709  0.1527 -1.3507 -0.8300
   76SOL     OW 1677   5.943   6.798   1.237 -0.3347 -0.1363  0.2859
   76SOL    HW1 1678   5.901   6.839   1.313 -0.8105 -1.3489  0.6993
   76SOL    HW2 1679   6.027   6.766   1.271  0.4989  1.3517 -0.2843
   77SOL     OW 1680   5.619   1.486   1.077  0.8072  0.1049 -0.5893
   77SOL    HW1 1681   5.668   1.543   1.137 -0.6403  0.2875  0.4845
   77SOL    HW2 1682   5.596   1.410   1.130 -0.1097  0.0515 -1.0500
   78SOL     OW 1683   5.958   3.853   6.583 -0.2723  0.0359  0.1661
   78SOL    HW1 1684   5.924   3.770   6.551  1.7651 -0.0001 -2.2567
   78SOL    HW2 1685   6.034   3.828   6.636 -0.6817  0.3153  0.8971
   79SOL     OW 1686   4.967   6.408   0.505  0.3125  0.0110 -0.0064
   79SOL    HW1 1687   4.991   6.492   0.544  0.1674 -0.0247  0.1611
   79SOL    HW2 1688   5.044   6.353   0.518 -0.4763 -0.6765  2.1691
   80SOL     OW 1689   2.836   2.168   5.549  0.1800 -0.0930 -0.4478
   80SOL    HW1 1690   2.837   2.259   5.519 -1.0923 -0.5466 -2.0459
   80SOL    HW2 1691   2.819   2.173   5.643 -1.7732  1.3079 -0.8182
   81SOL     OW 1692   1.070   2.805   3.918 -0.3652  0.6927 -0.7764
   81SOL    HW1 1693   1.144   2.744   3.925 -1.3831 -0.6395 -1.2955
   81SOL    HW2 1694   1.058   2.816   3.824 -3.3599 -2.4142 -0.9696
   82SOL     OW 1695   3.998   5.122   5.306  0.0095  0.3664 -0.4264
   82SOL    HW1 1696   4.006   5.043   5.251 -0.2396 -0.2875  0.4437
   82SOL    HW2 1697   3.915   5.109   5.353  1.2135 -0.1441  1.6938
   83SOL     OW 1698   6.001   5.005   3.828  0.1794  0.4619  0.1562
   83SOL    HW1 1699   5.921   5.025   3.780 -1.4520 -2.9845  1.1454
   83SOL    HW2 1700   5.977   5.012   3.920  1.1821 -0.0862  0.4800
   84SOL     OW 1701   6.697   0.125   2.920  0.7120  0.4869 -0.0530
   84SOL    HW1 1702   6.751   0.171   2.857  2.2443 -0.6658  0.3451
   84SOL    HW2 1703   6.623   0.183   2.936  1.2892  1.6511 -1.4246
   85SOL     OW 1704   6.282   2.248   6.360 -0.1419 -0.1174 -0.6141
   85SOL    HW1 1705   6.220   2.221   6.293  1.4088 -1.1712 -1.7162
   85SOL    HW2 1706   6.285   2.343   6.355  0.7215 -0.2120 -2.8533
   86SOL     OW 1707   4.842   4.806   0.881  0.1591 -0.3506  0.2649
   86SOL    HW1 1708   4.908   4.741   0.857 -1.1916 -1.4483 -0.5498
   86SOL    HW2 1709   4.860   4.824   0.974  0.9706 -1.3671  0.3291
   87SOL     OW 1710   3.552   5.623   6.920  0.2185 -0.0172 -0.2625
   87SOL    HW1 1711   3.622   5.659   6.974 -1.3144  1.2034  0.9942
   87SOL    HW2 1712   3.591   5.545   6.879  1.9954  0.0868  1.1197
   88SOL     OW 1713   6.326   3.246   4.601  0.1447  0.2365  0.1053
   88SOL    HW1 1714   6.323   3.191   4.679  0.0898  0.5893  0.3556
   88SOL    HW2 1715   6.250   3.220   4.550 -1.2248  1.6637  1.3100
   89SOL     OW 1716   1.324   6.285   4.454  0.0977 -0.2461 -0.7354
   89SOL    HW1 1717   1.343   6.287   4.360 -0.2707 -0.4091 -0.8128
   89SOL    HW2 1718   1.235   6.320   4.462 -0.8989 -2.6531 -0.7089
   90SOL     OW 1719   5.014   4.191   1.290  0.3192 -0.2506  0.1219
   90SOL    HW1 1720   5.091   4.134   1.284  0.8895  0.2441  2.1432
   90SOL    HW2 1721   4.977   4.171   1.376  0.3506  2.1769  0.7540
   91SOL     OW 1722   2.911   1.546   1.146  0.3457  0.2675 -0.0811
   91SOL    HW1 1723   2.992   1.533   1.097  2.3261 -1.5696  3.2970
   91SOL    HW2 1724   2.847   1.569   1.080  3.3806  0.9483 -3.0920
   92SOL     OW 1725   4.329   3.682   6.540  0.4616 -0.0877  0.3109
   92SOL    HW1 1726   4.412   3.635   6.535  0.1756 -0.5420 -0.2212
   92SOL    HW2 1727   4.311   3.709   6.450 -0.8940 -1.6149  0.0749
   93SOL     OW 1728   0.216   1.944   7.104  0.5359 -0.4292 -0.0686
   93SOL    HW1 1729   0.137   1.994   7.125  0.3434 -0.2776 -1.0924
   93SOL    HW2 1730   0.282   1.978   7.164  0.0127 -0.0263  0.2907
   94SOL     OW 1731   0.639   2.369   0.417  0.1155 -0.0927 -0.2798
   94SOL    HW1 1732   0.619   2.439   0.354 -0.2952 -1.0772 -1.2858
   94SOL    HW2 1733   0.553   2.343   0.452  0.3194  0.2721  0.5103
   95SOL     OW 1734   6.255   5.078   6.955  0.4874  0.1368 -0.2020
   95SOL    HW1 1735   6.201   5.107   6.881 -1.3747 -1.4728  0.4178
   95SOL    HW2 1736   6.198   5.018   7.003  2.2342 -0.1716  1.6013
   96SOL     OW 1737   0.414   0.033   6.137 -0.4345 -0.5791  0.1774
   96SOL    HW1 1738   0.424  -0.043   6.194  1.4832 -0.1760  0.4435
   96SOL    HW2 1739   0.402   0.107   6.198  0.0423 -0.3573  0.0036
   97SOL     OW 1740   2.356   5.792   3.289 -0.5653  0.1671  0.3053
   97SOL    HW1 1741   2.319   5.764   3.205 -0.6707 -0.1758  0.4609
   97SOL    HW2 1742   2.432   5.846   3.265 -1.1099  0.8029 -0.0150
   98SOL     OW 1743   5.888   0.447   5.807 -0.5894  0.4557  0.3570
   98SOL    HW1 1744   5.929   0.361   5.820  1.3896  0.8569 -2.3799
   98SOL    HW2 1745   5.899   0.492   5.891  1.3148 -0.8061  0.8493
   99SOL     OW 1746   3.780   5.190   3.989  0.0134  0.1099 -0.2043
   99SOL    HW1 1747   3.756   5.282   3.977 -2.3067 -0.4234 -0.2020
   99SOL    HW2 1748   3.788   5.179   4.084  1.8496  0.6100 -0.2632
  100SOL     OW 1749   3.859   4.134   2.124 -0.2347  0.2481 -0.0016
  100SOL    HW1 1750   3.937   4.144   2.070  1.6117  0.8510  2.5518
  100SOL    HW2 1751   3.841   4.040   2.122 -0.4652  0.3133 -1.9275
  101SOL     OW 1752   3.037   4.100   3.717  0.6692  0.1555 -0.0243
  101SOL    HW1 1753   2.990   4.075   3.797 -1.4964  1.1254 -0.9097
  101SOL    HW2 1754   3.053   4.194   3.728  0.7328  0.2038 -0.5282
  102SOL     OW 1755   0.185   2.292   0.180 -0.3891 -0.0853  0.0208
  102SOL    HW1 1756   0.127   2.368   0.185  0.5597  0.8168 -1.6484
  102SOL    HW2 1757   0.145   2.237   0.112  0.5245  0.4275 -0.9654
  103SOL     OW 1758   4.953   5.336   3.208 -0.5727 -0.2132  0.2141
  103SOL    HW1 1759   4.983   5.426   3.225 -1.2694 -0.0749  0.7661
  103SOL    HW2 1760   4.916   5.307   3.291  0.2924 -1.2865  0.2474
  104SOL     OW 1761   0.652   7.106   0.487  0.1628  0.2156 -0.0559
  104SOL    HW1 1762   0.723   7.061   0.442  1.2017  0.7370  1.0096
  104SOL    HW2 1763   0.657   7.197   0.455  2.1669  1.0972  2.4000
  105SOL     OW 1764   2.831   0.631   6.081 -0.1888 -0.1405 -0.1150
  105SOL    HW1 1765   2.887   0.662   6.152 -0.3445 -0.0328 -0.0396
  105SOL    HW2 1766   2.763   0.580   6.126 -1.0889  1.0715 -0.0563
  106SOL     OW 1767   5.303   1.522   3.604  0.0764 -0.1597 -0.5293
  106SOL    HW1 1768   5.225   1.526   3.549 -1.3711  0.8708  1.4335
  106SOL    HW2 1769   5.326   1.614   3.619  0.6076 -0.4183  0.2908
  107SOL     OW 1770   5.585   2.472   5.255  0.1580  0.4444 -0.0818
  107SOL    HW1 1771   5.528   2.501   5.183 -0.5574 -0.4203  0.1260
  107SOL    HW2 1772   5.605   2.553   5.303 -0.0435  0.9090 -0.7599
  108SOL     OW 1773   3.588   1.247   2.489 -0.3581 -0.2097  0.0597
  108SOL    HW1 1774   3.500   1.212   2.470 -0.0131 -1.6009  0.8605
  108SOL    HW2 1775   3.589   1.333   2.448 -3.2807  1.3172  2.8038
  109SOL     OW 1776   5.607   6.618   1.182 -0.7107 -0.3327 -0.8661
  109SOL    HW1 1777   5.679   6.650   1.128  1.1735 -0.7313  1.2497
  109SOL    HW2 1778   5.582   6.694   1.235  0.3248 -0.9853  0.6032
  110SOL     OW 1779   3.639   1.001   1.328  0.1265 -0.0135 -0.4186
  110SOL    HW1 1780   3.610   1.046   1.407 -2.3545 -0.7118 -0.8149
  110SOL    HW2 1781   3.719   1.046   1.301 -0.3928  1.8993  1.0422
  111SOL     OW 1782   0.024   2.409   6.183 -0.1682 -0.7428  0.0529
  111SOL    HW1 1783  -0.062   2.388   6.219 -0.8050 -1.0852 -1.5643
  111SOL    HW2 1784   0.079   2.334   6.207 -0.5315 -0.8941  0.4274
  112SOL     OW 1785   5.230   1.677   6.752 -0.5674  0.4919 -0.4188
  112SOL    HW1 1786   5.294   1.727   6.802 -0.4846  1.3806 -1.3654
  112SOL    HW2 1787   5.177   1.632   6.817 -0.2216  1.3049  0.4429
  113SOL     OW 1788   5.347   0.405   4.540  0.2215 -0.7173  0.5202
  113SOL    HW1 1789   5.328   0.313   4.558  0.6791 -0.9910 -0.3357
  113SOL    HW2 1790   5.423   0.425   4.594  1.4183 -1.4559 -0.7852
  114SOL     OW 1791   1.617   0.437   5.490 -0.3658 -0.2018  0.1830
  114SOL    HW1 1792   1.547   0.436   5.425  0.1544  3.0519 -0.5624
  114SOL    HW2 1793   1.573   0.421   5.573 -1.5195 -1.0822 -0.5646
  115SOL     OW 1794   6.470   6.334   3.564 -0.0652  0.2045 -0.2374
  115SOL    HW1 1795   6.395   6.383   3.596  0.3324  1.5174 -1.2368
  115SOL    HW2 1796   6.436   6.285   3.489 -0.2521 -0.3966  0.2257
  116SOL     OW 1797   6.704   6.020   5.150 -0.0947  0.1679  0.0562
  116SOL    HW1 1798   6.661   6.055   5.228  0.6616 -0.1232  0.6162
  116SOL    HW2 1799   6.659   5.937   5.134  0.8881 -0.6264  1.2399
  117SOL     OW 1800   3.160   0.856   1.139 -0.4410 -0.1632  0.6429
  117SOL    HW1 1801   3.071   0.869   1.106  0.5349  1.0070 -1.7946
  117SOL    HW2 1802   3.190   0.945   1.161  1.4374  0.1486 -2.5200
  118SOL     OW 1803   2.999   1.979   1.356 -0.7361 -0.7077 -0.6037
  118SOL    HW1 1804   3.006   1.917   1.283 -1.1724 -0.5620 -0.7755
  118SOL    HW2 1805   2.962   2.058   1.316 -1.0687 -0.6618 -0.2081
  119SOL     OW 1806   6.768   0.216   5.518  0.4701  0.4034  0.5187
  119SOL    HW1 1807   6.800   0.128   5.538  1.0096  0.2824 -0.7600
  119SOL    HW2 1808   6.810   0.272   5.583 -1.3241 -0.4645  2.5515
  120SOL     OW 1809   2.768   0.292   6.500 -0.1257 -0.0872  0.7018
  120SOL    HW1 1810   2.778   0.286   6.595 -0.1951 -0.1439  0.7060
  120SOL    HW2 1811   2.783   0.384   6.479  2.7784 -0.5329  0.4311
  121SOL     OW 1812   2.518   5.742   5.267  0.1925 -0.5413 -0.5298
  121SOL    HW1 1813   2.556   5.740   5.179 -0.6240  2.8005 -1.1311
  121SOL    HW2 1814   2.587   5.777   5.322  0.2382 -1.2546 -0.1264
  122SOL     OW 1815   3.820   7.101   5.312 -0.1174 -0.3645 -0.0383
  122SOL    HW1 1816   3.830   7.031   5.378 -0.5529  0.6210  1.1072
  122SOL    HW2 1817   3.726   7.118   5.309 -0.2940 -1.3798 -2.0145
  123SOL     OW 1818   5.476   3.393   3.340 -0.6019 -0.1193 -0.0709
  123SOL    HW1 1819   5.394   3.407   3.292 -0.6681  0.5391  0.2354
  123SOL    HW2 1820   5.533   3.465   3.313 -0.7841  0.4984  1.1431
  124SOL     OW 1821   4.060   6.435   0.033 -0.3044 -0.5289  0.3183
  124SOL    HW1 1822   4.105   6.376  -0.028  1.6837  2.1785 -1.0952
  124SOL    HW2 1823   4.113   6.431   0.113  0.6491  0.2684 -0.2443
  125SOL     OW 1824   5.440   5.271   0.913  0.1303  0.1372 -0.2778
  125SOL    HW1 1825   5.360   5.281   0.964 -0.3503  0.0279 -1.0014
  125SOL    HW2 1826   5.496   5.343   0.942 -0.3880  0.4568 -0.0591
  126SOL     OW 1827   0.488   5.161   6.346  0.6482 -0.0509  0.2473
  126SOL    HW1 1828   0.411   5.106   6.331  0.1381  0.3632  1.2548
  126SOL    HW2 1829   0.563   5.103   6.332  0.1289 -1.1443  1.7498
  127SOL     OW 1830   3.712   1.868   6.924  0.0423 -0.1786 -0.1465
  127SOL    HW1 1831   3.715   1.815   6.845 -1.7618 -0.6712  0.0600
  127SOL    HW2 1832   3.772   1.824   6.985  0.8634 -0.2260 -0.9854
  128SOL     OW 1833   5.211   5.308   1.057  0.5647  0.3496  0.4935
  128SOL    HW1 1834   5.164   5.389   1.036 -0.2822 -0.1761  0.2847
  128SOL    HW2 1835   5.144   5.240   1.052  0.9588 -0.1938  2.0504
  129SOL     OW 1836   1.868   0.283   1.803  0.0163  0.3939 -0.1853
  129SOL    HW1 1837   1.950   0.330   1.790 -0.0328  0.6632  0.4651
  129SOL    HW2 1838   1.829   0.323   1.880 -0.9967  0.6343 -0.8011
  130SOL     OW 1839   0.677   4.790   0.172  0.7014 -0.4158  0.3877
  130SOL    HW1 1840   0.656   4.823   0.085  0.2347 -0.1266  0.6022
  130SOL    HW2 1841   0.765   4.754   0.164  1.5333  1.4793  0.2874
  131SOL     OW 1842   0.819   3.001   2.106 -0.5370 -0.3748  0.1264
  131SOL    HW1 1843   0.872   2.944   2.050 -0.7362 -0.7749  0.3484
  131SOL    HW2 1844   0.826   3.087   2.064 -0.5827 -0.6435 -0.4468
  132SOL     OW 1845   2.626   1.508   0.430  0.4949 -0.1937 -0.3753
  132SOL    HW1 1846   2.564   1.489   0.501  0.5088  1.5235  0.1315
  132SOL    HW2 1847   2.591   1.460   0.355 -1.5724  0.8206 -0.1461
  133SOL     OW 1848   5.646   6.597   6.437 -0.4141 -0.3727 -0.0574
  133SOL    HW1 1849   5.661   6.567   6.527  0.9240 -1.0377 -0.4845
  133SOL    HW2 1850   5.625   6.690   6.446  0.6719 -0.1982  0.8798
  134SOL     OW 1851   0.752   6.925   4.322 -0.2857  0.0757 -0.5948
  134SOL    HW1 1852   0.778   6.926   4.230  1.8414  0.1274 -0.0426
  134SOL    HW2 1853   0.829   6.893   4.369 -1.1473  0.5208  1.2228
  135SOL     OW 1854   1.595   3.927   3.108 -0.3348  0.8914 -0.2715
  135SOL    HW1 1855   1.636   3.840   3.113  0.5443  1.3134  0.0004
  135SOL    HW2 1856   1.502   3.909   3.122 -0.1491  0.0027 -0.0641
  136SOL     OW 1857   3.127   2.273   1.359 -0.1512 -0.3540 -0.0929
  136SOL    HW1 1858   3.114   2.207   1.291  0.0832 -2.0446  1.4313
  136SOL    HW2 1859   3.211   2.315   1.337 -1.2087  0.8703 -2.1517
  137SOL     OW 1860   0.760   0.024   2.316  0.4696 -0.2801  0.1195
  137SOL    HW1 1861   0.731  -0.065   2.333 -0.2218 -0.2114 -0.6697
  137SOL    HW2 1862   0.845   0.014   2.272  0.6227 -0.5306  0.4683
  138SOL     OW 1863   6.962   6.646   2.765  0.0762  0.3172  0.3524
  138SOL    HW1 1864   6.930   6.572   2.815 -0.1332 -0.3125 -0.6993
  138SOL    HW2 1865   6.939   6.723   2.818 -0.8724 -0.2810  0.8191
  139SOL     OW 1866   2.113   1.072   2.384 -0.1185  0.1754 -0.2478
  139SOL    HW1 1867   2.116   1.088   2.479  2.4586  1.5780 -0.4790
  139SOL    HW2 1868   2.058   1.142   2.350 -1.9333 -0.9435  0.2565
  140SOL     OW 1869   5.842   4.330   6.282 -0.3771 -0.1240  0.4351
  140SOL    HW1 1870   5.771   4.356   6.223 -0.8219 -1.7056  0.2245
  140SOL    HW2 1871   5.798   4.284   6.353  0.5048 -3.3991 -0.9367
  141SOL     OW 1872   5.089   7.079   5.199  0.3783 -0.6860  0.2041
  141SOL    HW1 1873   5.128   7.060   5.114 -0.1721 -3.2983  0.4444
  141SOL    HW2 1874   5.000   7.108   5.179  0.4453 -0.7126 -0.1350
  142SOL     OW 1875   1.568   3.732   0.156  0.0262 -0.5999  0.1401
  142SOL    HW1 1876   1.601   3.652   0.198  0.0083 -1.0916 -0.7588
  142SOL    HW2 1877   1.527   3.781   0.227  1.7231 -0.4819  1.0995
  143SOL     OW 1878   6.207   2.413   1.179  0.2241  0.4685  0.4271
  143SOL    HW1 1879   6.118   2.433   1.151  0.3853 -2.0695 -2.3208
  143SOL    HW2 1880   6.210   2.318   1.185  2.9802  0.4068 -0.5937
  144SOL     OW 1881   6.595   0.530   0.135 -0.0279  0.1570  0.1004
  144SOL    HW1 1882   6.516   0.552   0.184 -0.7003  0.8272 -1.2503
  144SOL    HW2 1883   6.567   0.526   0.044  1.1314 -1.4359 -0.2197
  145SOL     OW 1884   0.979   1.936   1.505 -0.1748 -0.6511  0.3425
  145SOL    HW1 1885   0.951   1.946   1.596  0.9305  2.0450  0.4853
  145SOL    HW2 1886   0.937   2.009   1.459  0.7624 -0.8756 -0.9166
  146SOL     OW 1887   1.965   3.071   4.244  0.2331  0.0785  0.2589
  146SOL    HW1 1888   2.019   3.054   4.321 -1.5555 -1.1612  1.3200
  146SOL    HW2 1889   1.995   3.007   4.180  1.0178  0.3999  0.2985
  147SOL     OW 1890   0.764   5.879   0.355 -0.5037  0.1444 -0.2736
  147SOL    HW1 1891   0.768   5.939   0.280 -1.2127  1.1363  0.4635
  147SOL    HW2 1892   0.856   5.863   0.378 -0.3122  1.8379  0.2098
  148SOL     OW 1893   6.756   5.557   4.373  0.1468  0.0998 -0.1663
  148SOL    HW1 1894   6.799   5.615   4.435 -0.3080 -0.4136  0.6443
  148SOL    HW2 1895   6.785   5.469   4.398 -0.2681 -0.1345 -0.4900
  149SOL     OW 1896   5.034   2.848   1.174 -0.3808 -0.2489 -0.8072
  149SOL    HW1 1897   5.082   2.930   1.183  1.0228 -0.9029 -1.9953
  149SOL    HW2 1898   5.071   2.791   1.241 -0.7286 -0.2108 -0.5788
  150SOL     OW 1899   6.046   3.676   1.930  0.0287  0.7720  0.2464
  150SOL    HW1 1900   5.954   3.682   1.956 -0.1709  0.2266 -0.3214
  150SOL    HW2 1901   6.086   3.620   1.996 -0.7867 -1.8360 -1.3435
  151SOL     OW 1902   0.898   1.148   1.333  0.0308  0.6470 -0.0445
  151SOL    HW1 1903   0.884   1.226   1.278 -2.9693 -0.4451 -1.0274
  151SOL    HW2 1904   0.868   1.075   1.279  0.0563 -0.8765  1.8957
  152SOL     OW 1905   1.372   3.079   5.037 -0.1003 -0.6490 -0.2622
  152SOL    HW1 1906   1.301   3.134   5.071  0.2927  0.0403 -0.5463
  152SOL    HW2 1907   1.449   3.104   5.088 -0.1895 -1.9252  0.5712
  153SOL     OW 1908   5.309   3.761   6.667 -0.8977  0.0557  0.3171
  153SOL    HW1 1909   5.359   3.792   6.742 -0.1751  1.3912 -0.6824
  153SOL    HW2 1910   5.232   3.818   6.664 -1.9615 -1.2648  1.1729
  154SOL     OW 1911   1.903   7.132   4.184  0.0386  0.5860  0.0177
  154SOL    HW1 1912   1.853   7.207   4.152  0.8764  1.5544  0.9108
  154SOL    HW2 1913   1.987   7.139   4.139  0.3059  0.4845  0.4937
  155SOL     OW 1914   0.115   3.800   6.791  0.0855  0.0983  0.0959
  155SOL    HW1 1915   0.179   3.787   6.861  1.8315 -1.4307 -1.6780
  155SOL    HW2 1916   0.068   3.716   6.786  0.4566 -0.0591 -0.9865
  156SOL     OW 1917   3.783   0.340   5.915 -0.3249 -0.3438  0.5164
  156SOL    HW1 1918   3.780   0.418   5.860  0.4306 -0.4936  0.2432
  156SOL    HW2 1919   3.781   0.374   6.005  0.8188  0.0492  0.4097
  157SOL     OW 1920   4.634   0.438   0.064 -0.0875 -0.2548 -0.3318
  157SOL    HW1 1921   4.670   0.352   0.043  1.0446 -0.6212  2.5890
  157SOL    HW2 1922   4.560   0.419   0.122  1.1827  0.6387  1.7351
  158SOL     OW 1923   5.642   4.026   0.720  0.0442  0.3214 -0.1006
  158SOL    HW1 1924   5.565   3.982   0.754  1.0753 -1.0564  0.5433
  158SOL    HW2 1925   5.647   4.108   0.769 -1.7540  1.0772 -1.1253
  159SOL     OW 1926   5.697   5.722   4.658  0.0225 -0.5208  0.0917
  159SOL    HW1 1927   5.609   5.759   4.673  0.2170  0.2442 -0.5694
  159SOL    HW2 1928   5.715   5.740   4.566  0.9653 -0.4627  0.2769
  160SOL     OW 1929   1.616   4.980   1.385 -0.1097  0.0272  0.2716
  160SOL    HW1 1930   1.563   4.943   1.455 -0.4698 -0.0676 -0.0462
  160SOL    HW2 1931   1.690   4.920   1.376  0.6339  0.7290  1.4372
  161SOL     OW 1932   4.684   6.332   4.805 -0.2860  0.4301  0.0165
  161SOL    HW1 1933   4.676   6.304   4.714  2.3121 -0.1577 -0.1015
  161SOL    HW2 1934   4.716   6.422   4.800 -0.4878  0.5229  0.3447
  162SOL     OW 1935   0.328   5.513   0.420  0.2509  0.3804  0.1618
  162SOL    HW1 1936   0.384   5.571   0.369  1.9532 -0.1091  1.4103
  162SOL    HW2 1937   0.262   5.483   0.358  2.9175 -1.1664 -2.1686
  163SOL     OW 1938   6.420   0.917   0.867 -0.0852 -0.7504 -0.1566
  163SOL    HW1 1939   6.504   0.874   0.852  0.4547 -0.2247  1.2542
  163SOL    HW2 1940   6.439   1.010   0.863 -0.5527 -0.6226  0.3810
  164SOL     OW 1941   0.887   0.823   3.829 -0.8742  0.4253 -0.1791
  164SOL    HW1 1942   0.863   0.868   3.910 -0.2925  2.6288 -1.1596
  164SOL    HW2 1943   0.816   0.761   3.814 -0.5111 -0.7516  2.4917
  165SOL     OW 1944   4.482   2.284   0.688 -0.4669  0.7005 -0.4631
  165SOL    HW1 1945   4.552   2.221   0.671 -0.3405  0.5202  0.6631
  165SOL    HW2 1946   4.516   2.367   0.653 -0.2203  0.3626 -1.0396
  166SOL     OW 1947   6.479   1.047   3.585  0.2198  0.2623  0.1765
  166SOL    HW1 1948   6.411   0.995   3.629 -0.8641  0.8447 -0.7486
  166SOL    HW2 1949   6.561   1.004   3.610 -0.5186 -0.8427  0.8324
  167SOL     OW 1950   2.417   3.915   0.464  0.0177  0.6368 -0.0260
  167SOL    HW1 1951   2.349   3.893   0.401  1.6060 -2.7384 -0.8122
  167SOL    HW2 1952   2.372   3.917   0.549 -1.2089 -0.7087 -0.6071
  168SOL     OW 1953   3.705   4.010   3.126 -0.6365 -0.4383 -0.5251
  168SOL    HW1 1954   3.715   4.088   3.181  0.9309 -0.3263 -0.9220
  168SOL    HW2 1955   3.648   3.953   3.177 -1.7539  0.9131 -0.1828
  169SOL     OW 1956   4.013   2.012   5.275 -0.0509  0.8286  0.2015
  169SOL    HW1 1957   4.070   1.947   5.234 -1.1372 -0.7247  1.0468
  169SOL    HW2 1958   4.034   2.094   5.231  0.4573 -0.3186 -1.8183
  170SOL     OW 1959   1.899   0.568   0.167  0.2781 -0.0936  0.1283
  170SOL    HW1 1960   1.943   0.492   0.129  0.2454  1.0184 -2.3127
  170SOL    HW2 1961   1.828   0.588   0.106  1.1876  2.7638 -0.1474
  171SOL     OW 1962   0.851   4.786   4.528 -0.3887  0.4327 -0.0525
  171SOL    HW1 1963   0.821   4.702   4.563  0.1359  0.3374  0.1773
  171SOL    HW2 1964   0.773   4.843   4.532 -0.7826 -0.0746 -0.3348
  172SOL     OW 1965   2.742   0.103   2.832  0.0918 -0.1960  0.7595
  172SOL    HW1 1966   2.737   0.012   2.804 -1.3795  0.1311 -0.1563
  172SOL    HW2 1967   2.792   0.147   2.763  0.3168 -0.1944  0.9204
  173SOL     OW 1968   4.733   2.657   1.216 -0.3073  0.2957 -0.0882
  173SOL    HW1 1969   4.643   2.676   1.189 -1.0728 -1.3933  1.0808
  173SOL    HW2 1970   4.782   2.653   1.134 -1.6122 -0.1923 -0.8735
  174SOL     OW 1971   4.181   1.584   0.335 -0.3454  0.0596  0.0547
  174SOL    HW1 1972   4.088   1.601   0.348 -0.5258  0.1059 -1.1527
  174SOL    HW2 1973   4.205   1.525   0.406 -1.2892  0.0652  0.3932
  175SOL     OW 1974   1.802   2.833   3.928  0.9136  0.0742 -0.1006
  175SOL    HW1 1975   1.799   2.853   3.834 -2.1943  0.8034  0.0584
  175SOL    HW2 1976   1.776   2.915   3.971 -0.8022 -1.0875  1.1963
  176SOL     OW 1977   3.151   0.384   1.237  0.5928  0.0788 -0.4864
  176SOL    HW1 1978   3.210   0.356   1.167 -0.3398 -1.2200 -0.7872
  176SOL    HW2 1979   3.135   0.305   1.288  0.9523  0.9280  0.9935
  177SOL     OW 1980   0.069   2.745   6.687 -0.7019 -0.0046  0.3945
  177SOL    HW1 1981  -0.010   2.797   6.670 -0.0302  1.5516  1.7997
  177SOL    HW2 1982   0.141   2.803   6.665  0.0854 -1.0818  0.0378
  178SOL     OW 1983   2.878   5.289   1.175 -0.2983 -0.7147  0.3356
  178SOL    HW1 1984   2.891   5.242   1.258 -0.7389 -0.0127  0.8110
  178SOL    HW2 1985   2.805   5.348   1.192 -0.2170 -0.3659 -0.4786
  179SOL     OW 1986   5.907   2.636   4.680 -0.5896 -0.2197  0.0997
  179SOL    HW1 1987   5.850   2.627   4.756 -2.2920  1.3349 -0.9020
  179SOL    HW2 1988   5.870   2.576   4.615  1.4152 -2.2452  0.7424
  180SOL     OW 1989   5.626   5.310   5.882  0.8888 -0.7927  0.1441
  180SOL    HW1 1990   5.653   5.220   5.898 -0.3139 -0.9707  1.2852
  180SOL    HW2 1991   5.559   5.304   5.814  1.3127 -0.6679 -0.2963
  181SOL     OW 1992   1.402   2.914   6.786 -0.0170 -0.2999  0.4582
  181SOL    HW1 1993   1.461   2.844   6.758  0.9689  0.8300 -0.4038
  181SOL    HW2 1994   1.357   2.879   6.863 -0.2271 -2.1987 -0.4842
  182SOL     OW 1995   0.073   3.182   4.061 -0.2725 -0.8102 -0.6333
  182SOL    HW1 1996  -0.022   3.190   4.051 -0.2596  0.9536  0.2645
  182SOL    HW2 1997   0.108   3.263   4.024  0.4797  0.9481  3.3882
  183SOL     OW 1998   4.424   4.159   0.749  0.4421 -0.3118  0.8320
  183SOL    HW1 1999   4.519   4.162   0.742  0.3721  0.1156 -0.0927
  183SOL    HW2 2000   4.404   4.069   0.777  1.1666 -0.0699  2.1697
  184SOL     OW 2001   1.825   6.152   5.335  0.7043  0.7130 -0.6417
  184SOL    HW1 2002   1.799   6.215   5.403  0.5366 -0.6604  0.6072
  184SOL    HW2 2003   1.746   6.101   5.318  1.4658 -0.8041  0.1976
  185SOL     OW 2004   5.403   1.804   1.405  0.1928 -0.1900  0.2873
  185SOL    HW1 2005   5.482   1.833   1.450 -0.8130  1.0379  1.3328
  185SOL    HW2 2006   5.375   1.880   1.353 -1.7911  0.3999  2.0855
  186SOL     OW 2007   1.694   1.032   5.395 -0.0684  0.1436 -0.4288
  186SOL    HW1 2008   1.743   1.102   5.353 -0.0952  0.1199 -0.4993
  186SOL    HW2 2009   1.655   1.073   5.473 -0.9813  0.4857 -1.0501
  187SOL     OW 2010   2.683   4.768   5.277  0.1298  0.6675 -0.1064
  187SOL    HW1 2011   2.625   4.841   5.253 -0.9200  0.2616  1.0643
  187SOL    HW2 2012   2.623   4.700   5.308  1.1616 -0.3346 -0.2572
  188SOL     OW 2013   1.555   6.676   2.857  0.0999 -0.5272 -0.0120
  188SOL    HW1 2014   1.591   6.590   2.836 -0.6958 -1.7702  3.0918
  188SOL    HW2 2015   1.463   6.659   2.880 -0.1448  1.1747  0.4786
  189SOL     OW 2016   5.772   4.136   0.112 -0.0067  0.7952  0.3807
  189SOL    HW1 2017   5.756   4.075   0.040  1.8212 -0.5437  1.0213
  189SOL    HW2 2018   5.688   4.141   0.157 -0.3979 -0.7818 -0.0788
  190SOL     OW 2019   5.400   4.549   2.033  0.0694 -0.0056 -0.3236
  190SOL    HW1 2020   5.375   4.476   1.975  0.7514  0.6605 -1.4876
  190SOL    HW2 2021   5.370   4.627   1.987  2.5039  0.6950 -0.8515
  191SOL     OW 2022   1.712   3.893   5.357  0.0792  0.0451  0.0630
  191SOL    HW1 2023   1.705   3.807   5.316  2.5373  0.3929 -1.2666
  191SOL    HW2 2024   1.661   3.951   5.300  0.7843 -0.0577 -0.6948
  192SOL     OW 2025   3.506   0.920   0.475 -0.5000  0.1055 -0.3584
  192SOL    HW1 2026   3.451   0.938   0.551 -1.4731 -0.4528 -0.9009
  192SOL    HW2 2027   3.468   0.974   0.405  0.2011  0.3932 -0.5211
  193SOL     OW 2028   6.438   4.079   4.425 -0.1016  0.3032  0.1343
  193SOL    HW1 2029   6.406   4.133   4.353 -0.2875 -0.4649 -0.3654
  193SOL    HW2 2030   6.484   4.007   4.382 -0.5755 -0.3883  0.7789
  194SOL     OW 2031   3.289   2.353   3.123 -0.2217 -0.3933  0.0200
  194SOL    HW1 2032   3.289   2.286   3.054 -1.1141 -0.9984  0.5946
  194SOL    HW2 2033   3.378   2.389   3.121 -0.5060  0.4071 -2.2166
  195SOL     OW 2034   5.764   4.959   1.464 -0.3044  0.1770 -0.6112
  195SOL    HW1 2035   5.813   5.032   1.427 -1.0654  0.2632 -1.4552
  195SOL    HW2 2036   5.678   4.964   1.424 -0.3122 -1.2884 -0.8178
  196SOL     OW 2037   3.953   5.280   5.891 -0.4043  0.0713  0.1758
  196SOL    HW1 2038   3.950   5.314   5.801 -0.3433  1.4826  0.6713
  196SOL    HW2 2039   4.025   5.218   5.891  0.3978  0.9696 -0.4665
  197SOL     OW 2040   4.866   6.758   1.057 -0.1137 -0.5933  0.4296
  197SOL    HW1 2041   4.917   6.773   1.137 -2.1696  0.8656  1.5573
  197SOL    HW2 2042   4.889   6.669   1.030 -0.0860 -1.5251  3.2351
  198SOL     OW 2043   2.750   6.515   5.062  0.1474 -0.8842  0.2603
  198SOL    HW1 2044   2.731   6.485   5.151  0.3918 -0.4363  0.4701
  198SOL    HW2 2045   2.719   6.445   5.005  0.8822 -1.6167  0.7455
  199SOL     OW 2046   5.578   2.826   6.409 -0.1432  0.2525 -0.1610
  199SOL    HW1 2047   5.577   2.897   6.345 -0.1699  1.6434  1.3201
  199SOL    HW2 2048   5.588   2.870   6.493  1.4072 -1.6055  0.7030
  200SOL     OW 2049   2.998   1.660   4.830 -0.0856  0.4679 -0.1477
  200SOL    HW1 2050   3.020   1.657   4.923  0.3134 -0.0117 -0.2511
  200SOL    HW2 2051   2.904   1.678   4.828 -0.0600  0.6730  0.3425
  201SOL     OW 2052   3.313   2.174   4.659  0.0739  0.2326 -0.1894
  201SOL    HW1 2053   3.264   2.200   4.737 -1.8841 -0.1179 -1.2378
  201SOL    HW2 2054   3.267   2.097   4.626  0.5730  0.6347 -1.9388
  202SOL     OW 2055   1.609   0.025   4.519 -0.2016  0.1299 -0.3667
  202SOL    HW1 2056   1.520   0.031   4.484 -0.3411  1.8755  0.1959
  202SOL    HW2 2057   1.598  -0.014   4.606 -0.7768  2.5139  0.7173
  203SOL     OW 2058   5.801   0.586   1.174  0.2005  0.1036  0.3470
  203SOL    HW1 2059   5.748   0.657   1.136  1.3907  0.7413 -0.1653
  203SOL    HW2 2060   5.740   0.540   1.232 -1.4805 -0.3904 -1.6810
  204SOL     OW 2061   1.001   5.307   6.529  0.1069 -0.5710 -0.2987
  204SOL    HW1 2062   0.951   5.369   6.476  0.6056 -0.5399 -0.7378
  204SOL    HW2 2063   1.086   5.349   6.543 -0.4232 -0.0190  1.5933
  205SOL     OW 2064   0.723   0.909   3.493  0.0333 -0.0368 -0.0043
  205SOL    HW1 2065   0.785   0.923   3.421 -1.4055 -0.9228 -1.4806
  205SOL    HW2 2066   0.762   0.955   3.567  1.9380  0.2963 -1.1397
  206SOL     OW 2067   5.574   5.235   0.371  0.4613  0.7353 -0.1781
  206SOL    HW1 2068   5.492   5.200   0.407  0.0202  0.6679 -1.2032
  206SOL    HW2 2069   5.622   5.267   0.447 -0.4622  0.6567  0.4564
  207SOL     OW 2070   3.637   6.154   1.099  0.0093  0.7980 -0.0108
  207SOL    HW1 2071   3.634   6.201   1.016 -0.6623  0.8728  0.0513
  207SOL    HW2 2072   3.622   6.221   1.165  0.3823  0.7130  0.1616
  208SOL     OW 2073   5.611   4.352   0.760 -0.0415  0.8143  0.8036
  208SOL    HW1 2074   5.685   4.321   0.708 -0.9111 -1.5636  0.8431
  208SOL    HW2 2075   5.642   4.351   0.850 -0.0093  0.1396  0.7891
  209SOL     OW 2076   4.146   5.910   6.424  0.0925 -0.3556 -0.3413
  209SOL    HW1 2077   4.172   5.910   6.332  0.0628  0.5985 -0.3689
  209SOL    HW2 2078   4.216   5.960   6.468  0.3172 -1.1540  0.2203
  210SOL     OW 2079   4.539   3.251   4.926  0.4728  0.1562  0.0329
  210SOL    HW1 2080   4.601   3.183   4.902 -0.3088 -1.1845  1.5348
  210SOL    HW2 2081   4.573   3.286   5.008  0.1970  0.6700 -0.0704
  211SOL     OW 2082   1.177   2.809   4.920  0.1362  0.3085 -0.2678
  211SOL    HW1 2083   1.158   2.881   4.980  0.6294 -0.4655  0.8645
  211SOL    HW2 2084   1.091   2.773   4.897 -0.0937  1.0730 -0.6042
  212SOL     OW 2085   0.720   3.723   5.411 -0.7110 -0.1218  0.3505
  212SOL    HW1 2086   0.630   3.755   5.402 -1.2381 -0.7569  2.6897
  212SOL    HW2 2087   0.716   3.631   5.386  0.0025  0.5099 -2.5118
  213SOL     OW 2088   6.725   5.544   0.913 -0.0238 -0.0363 -0.2198
  213SOL    HW1 2089   6.630   5.555   0.924  0.1213  0.5320  0.5405
  213SOL    HW2 2090   6.749   5.484   0.984  0.3755  0.8313  0.3962
  214SOL     OW 2091   2.213   2.481   1.264 -0.7522  1.1006  0.0526
  214SOL    HW1 2092   2.165   2.563   1.251 -0.4346  1.1480 -0.8423
  214SOL    HW2 2093   2.244   2.486   1.355 -0.3070  2.1916 -0.1489
  215SOL     OW 2094   0.840   1.521   3.904 -0.4192 -0.2659 -0.1041
  215SOL    HW1 2095   0.759   1.480   3.874 -0.3937 -0.6465  0.3296
  215SOL    HW2 2096   0.897   1.447   3.927 -0.1482  0.0024  0.0990
  216SOL     OW 2097   0.813   2.147   0.891 -0.3208  0.1705 -0.2094
  216SOL    HW1 2098   0.803   2.070   0.946  1.4431  0.2114  0.2296
  216SOL    HW2 2099   0.788   2.220   0.947 -1.7126 -0.0314 -0.5344
  217SOL     OW 2100   1.167   5.953   4.726 -0.3307 -0.2764 -0.6296
  217SOL    HW1 2101   1.243   5.961   4.668 -0.0771  0.8293 -0.1617
  217SOL    HW2 2102   1.092   5.973   4.671 -0.1673 -0.0792 -0.7806
  218SOL     OW 2103   3.563   2.535   5.602  0.3043  0.0004 -0.1037
  218SOL    HW1 2104   3.607   2.459   5.638  0.9884 -1.5998 -3.8396
  218SOL    HW2 2105   3.490   2.499   5.552 -0.3295  1.9606 -0.6798
  219SOL     OW 2106   5.239   2.562   4.789  0.3068 -0.3534 -0.8647
  219SOL    HW1 2107   5.225   2.480   4.742  1.2140 -0.4308 -1.0207
  219SOL    HW2 2108   5.276   2.621   4.723  1.2096 -0.3394 -0.3679
  220SOL     OW 2109   0.137   5.473   6.619  0.2946 -0.9935  0.4855
  220SOL    HW1 2110   0.191   5.529   6.563 -2.1184 -0.7553 -1.8244
  220SOL    HW2 2111   0.170   5.384   6.603 -0.6937 -1.0068 -1.9319
  221SOL     OW 2112   6.818   1.389   6.556  0.3632 -0.0213 -0.3001
  221SOL    HW1 2113   6.770   1.456   6.605  0.9785  0.1767  0.0501
  221SOL    HW2 2114   6.791   1.402   6.465  1.7057  1.8264 -0.5102
  222SOL     OW 2115   1.744   1.592   5.244 -0.0633  0.3061 -0.1241
  222SOL    HW1 2116   1.717   1.536   5.317 -1.1811  1.4355  0.3629
  222SOL    HW2 2117   1.840   1.588   5.245 -0.0750 -0.1327  1.0723
  223SOL     OW 2118   0.480   4.125   0.906 -0.3758 -0.2881 -0.3077
  223SOL    HW1 2119   0.482   4.030   0.912 -0.7241 -0.4013 -1.6008
  223SOL    HW2 2120   0.394   4.150   0.942 -0.0543 -0.4065  0.5523
  224SOL     OW 2121   5.206   1.116   4.534  0.4406 -0.4993  0.8140
  224SOL    HW1 2122   5.221   1.211   4.541  1.8423 -0.5105 -1.2018
  224SOL    HW2 2123   5.206   1.086   4.625  0.9895  1.2872  1.4627
  225SOL     OW 2124   4.429   6.868   5.193 -0.2287  0.1154  0.7687
  225SOL    HW1 2125   4.411   6.910   5.109  0.7357  0.4626  0.7222
  225SOL    HW2 2126   4.514   6.827   5.182  0.2984  0.8746  1.8308
  226SOL     OW 2127   1.945   1.249   0.682  0.4856  0.9878  0.0639
  226SOL    HW1 2128   1.931   1.342   0.664  3.7314  1.7359  0.8124
  226SOL    HW2 2129   1.913   1.237   0.771 -0.3239  1.2755 -0.1810
  227SOL     OW 2130   5.249   3.491   1.414 -0.1512  0.3651  0.7831
  227SOL    HW1 2131   5.306   3.430   1.367 -0.1270  1.9736 -1.4274
  227SOL    HW2 2132   5.196   3.436   1.471  2.1075 -1.3803  1.3415
  228SOL     OW 2133   6.841   1.900   3.706 -0.1684 -0.5609 -0.2947
  228SOL    HW1 2134   6.818   1.835   3.772 -2.5535  0.0164 -0.4713
  228SOL    HW2 2135   6.822   1.984   3.747  0.9581 -0.0489 -0.7811
  229SOL     OW 2136   6.830   3.821   4.205  0.1325  0.2458 -0.3858
  229SOL    HW1 2137   6.876   3.841   4.287 -0.7870  0.6359  0.0548
  229SOL    HW2 2138   6.897   3.827   4.137  0.7538  0.6490  0.2494
  230SOL     OW 2139   1.835   5.670   4.277  0.1508  0.3229  0.5524
  230SOL    HW1 2140   1.837   5.710   4.364  0.4610  0.9098  0.2874
  230SOL    HW2 2141   1.750   5.625   4.273 -0.3549  1.2201  0.7629
  231SOL     OW 2142   2.270   7.049   0.520 -0.5830  0.1449 -0.1631
  231SOL    HW1 2143   2.237   7.139   0.524 -0.1856  0.3253 -0.7345
  231SOL    HW2 2144   2.219   7.008   0.451 -0.0026  0.2662 -0.6748
  232SOL     OW 2145   1.555   2.714   4.309  0.0074  0.2927  0.0482
  232SOL    HW1 2146   1.506   2.651   4.363 -0.0059  0.8032  0.6438
  232SOL    HW2 2147   1.564   2.791   4.365 -1.8241  1.6464 -1.4128
  233SOL     OW 2148   3.270   6.417   1.396 -0.1459  0.1727  0.0708
  233SOL    HW1 2149   3.290   6.370   1.477 -1.9743  1.5736  1.4236
  233SOL    HW2 2150   3.193   6.470   1.418  1.0282  2.8132 -1.7330
  234SOL     OW 2151   0.983   2.001   2.369 -0.4213  0.0789  0.9573
  234SOL    HW1 2152   0.905   1.986   2.423 -1.1819  0.9175  0.1235
  234SOL    HW2 2153   1.009   2.091   2.389 -2.1347  1.2890 -1.7666
  235SOL     OW 2154   2.415   0.493   4.395  0.1961 -0.2382  0.3096
  235SOL    HW1 2155   2.393   0.578   4.357  0.6785  0.4750  1.5743
  235SOL    HW2 2156   2.496   0.467   4.350  0.8188  0.6461  0.8869
  236SOL     OW 2157   5.531   5.742   4.978  0.1895  0.0142  0.7226
  236SOL    HW1 2158   5.464   5.799   5.017 -0.4558 -1.8027  2.4510
  236SOL    HW2 2159   5.572   5.698   5.053  0.2848 -2.1810 -0.5208
  237SOL     OW 2160   4.724   5.636   6.344 -0.8138  0.5432 -0.3398
  237SOL    HW1 2161   4.750   5.719   6.385  0.8144 -1.0195  2.0495
  237SOL    HW2 2162   4.669   5.593   6.409 -1.3858 -0.4010 -1.4055
  238SOL     OW 2163   2.793   5.572   0.756  0.0024  0.3541 -0.7881
  238SOL    HW1 2164   2.716   5.602   0.708 -1.5448  1.4163  2.1015
  238SOL    HW2 2165   2.781   5.477   0.762  0.5777  0.1045 -2.9491
  239SOL     OW 2166   5.982   4.009   5.622 -0.1500  0.6531 -0.2073
  239SOL    HW1 2167   6.047   4.066   5.664  0.3712 -0.4077  0.4660
  239SOL    HW2 2168   5.951   3.952   5.692  0.3998 -0.8534 -1.1525
  240SOL     OW 2169   4.140   1.246   5.653 -0.0241 -0.6409  0.1405
  240SOL    HW1 2170   4.092   1.324   5.681 -0.8206 -0.4842 -1.5312
  240SOL    HW2 2171   4.072   1.183   5.629  0.6150 -1.4161  0.3323
  241SOL     OW 2172   2.989   1.404   5.043  0.0267  0.0119  0.2065
  241SOL    HW1 2173   3.076   1.430   5.012 -0.4551  2.1252  0.4973
  241SOL    HW2 2174   3.002   1.384   5.135  0.2916 -0.1005  0.1474
  242SOL     OW 2175   6.670   5.392   2.374  0.0943  0.5891  0.2722
  242SOL    HW1 2176   6.658   5.320   2.312 -0.1406 -0.7471  1.8310
  242SOL    HW2 2177   6.730   5.358   2.440 -0.1254  1.7751  1.1258
  243SOL     OW 2178   2.327   1.492   0.294  1.0412 -0.5550 -0.3671
  243SOL    HW1 2179   2.402   1.458   0.245  2.0920  1.1083  0.0035
  243SOL    HW2 2180   2.283   1.552   0.234 -0.1368 -1.6472 -0.6410
  244SOL     OW 2181   0.433   7.045   2.508 -0.3964  0.3987  0.1585
  244SOL    HW1 2182   0.406   6.956   2.527  0.5781 -0.3323 -1.6275
  244SOL    HW2 2183   0.354   7.087   2.474 -0.3131 -0.5423 -1.2935
  245SOL     OW 2184   2.801   4.918   1.772  0.0084  0.1429 -0.0289
  245SOL    HW1 2185   2.876   4.875   1.813  0.0704 -1.1084 -1.3597
  245SOL    HW2 2186   2.793   4.875   1.687 -1.1891  1.4255 -0.5994
  246SOL     OW 2187   6.756   3.150   6.245 -0.6583  0.4821 -0.0199
  246SOL    HW1 2188   6.799   3.076   6.287  0.1539  0.5041 -0.8008
  246SOL    HW2 2189   6.819   3.221   6.250 -2.5008  2.1477  3.4859
  247SOL     OW 2190   2.297   2.688   5.410  0.2437 -0.2892  0.0517
  247SOL    HW1 2191   2.243   2.705   5.333  0.7011 -3.4906 -1.1003
  247SOL    HW2 2192   2.384   2.719   5.385  0.6204 -2.2113 -1.1946
  248SOL     OW 2193   2.159   4.852   6.882  0.2097 -0.1860 -0.1759
  248SOL    HW1 2194   2.130   4.761   6.894  1.1477 -0.3883  0.7748
  248SOL    HW2 2195   2.111   4.901   6.948  0.8693 -0.2789  0.3965
  249SOL     OW 2196   3.496   1.138   1.563  0.1812 -0.2073  0.0781
  249SOL    HW1 2197   3.506   1.229   1.534  0.8428 -0.7980 -1.6783
  249SOL    HW2 2198   3.404   1.117   1.545  0.4738 -0.4251 -1.2319
  250SOL     OW 2199   1.157   4.369   3.777 -0.0310  0.3097 -0.0607
  250SOL    HW1 2200   1.248   4.398   3.785 -0.6544  1.8067  2.4184
  250SOL    HW2 2201   1.121   4.374   3.865 -2.4845 -0.4476 -0.9170
  251SOL     OW 2202   6.592   5.109   4.992  0.3428  0.0213  0.1216
  251SOL    HW1 2203   6.501   5.132   4.973  0.3614  1.0893  1.2346
  251SOL    HW2 2204   6.608   5.030   4.940 -1.0570  0.1115 -0.4811
  252SOL     OW 2205   5.545   3.411   0.485  0.8427  0.1043 -0.3715
  252SOL    HW1 2206   5.484   3.458   0.428 -0.2580 -0.4543  0.3184
  252SOL    HW2 2207   5.605   3.367   0.425  1.4514  1.7681 -1.0480
  253SOL     OW 2208   4.306   2.396   5.354  0.0779 -0.0341  0.4379
  253SOL    HW1 2209   4.382   2.448   5.329 -0.9401  1.5453  0.5065
  253SOL    HW2 2210   4.333   2.353   5.435  1.4626 -0.8568 -0.4098
  254SOL     OW 2211   2.958   5.598   5.845  0.2973 -0.4296  0.3463
  254SOL    HW1 2212   2.992   5.683   5.870  0.5018 -0.3763 -0.0975
  254SOL    HW2 2213   2.897   5.574   5.915 -3.2123  2.0471 -1.5325
  255SOL     OW 2214   2.836   4.033   4.293  0.2694 -0.2394  0.3121
  255SOL    HW1 2215   2.846   4.119   4.254  0.9257 -0.8611 -0.9527
  255SOL    HW2 2216   2.923   3.994   4.288 -0.3082 -1.5058 -0.4638
  256SOL     OW 2217   1.263   4.873   5.697 -0.6034 -0.0980 -0.7432
  256SOL    HW1 2218   1.262   4.899   5.789 -3.0977 -0.3138 -0.6439
  256SOL    HW2 2219   1.220   4.944   5.651 -1.1954 -0.8862 -1.4419
  257SOL     OW 2220   3.210   6.492   6.279 -0.0781  0.2928  0.1922
  257SOL    HW1 2221   3.178   6.583   6.277  0.9317  0.6528 -0.6455
  257SOL    HW2 2222   3.296   6.497   6.321  0.0231 -0.2644  0.0606
  258SOL     OW 2223   4.841   3.559   4.306  0.0437 -0.0027  0.2025
  258SOL    HW1 2224   4.782   3.603   4.368 -0.4092  1.9386 -1.4934
  258SOL    HW2 2225   4.810   3.586   4.220  2.9511  0.5229 -0.7895
  259SOL     OW 2226   1.553   6.743   4.012  0.2557  0.7298 -0.7201
  259SOL    HW1 2227   1.604   6.698   3.945  0.5831 -0.6221  0.3740
  259SOL    HW2 2228   1.618   6.780   4.071 -0.0313  1.2909 -0.7480
  260SOL     OW 2229   2.410   6.560   2.441 -0.1636 -0.3351  0.1919
  260SOL    HW1 2230   2.430   6.538   2.532 -0.8578  1.1849  0.7492
  260SOL    HW2 2231   2.484   6.526   2.391  0.0123 -1.5968  1.2613
  261SOL     OW 2232   5.638   1.890   0.374 -0.1067  0.5547 -0.1002
  261SOL    HW1 2233   5.562   1.926   0.419 -0.2598 -0.2294  0.2994
  261SOL    HW2 2234   5.706   1.956   0.384 -0.3330  0.6725  0.7303
  262SOL     OW 2235   4.588   3.380   6.264 -0.2788  0.1745 -0.4623
  262SOL    HW1 2236   4.637   3.353   6.342  0.2501  1.6366 -0.2714
  262SOL    HW2 2237   4.654   3.414   6.204 -0.8413  0.2925 -1.0226
  263SOL     OW 2238   0.890   2.450   5.894  0.4514  0.1106 -0.3355
  263SOL    HW1 2239   0.951   2.378   5.910 -0.5026 -0.3714  1.4003
  263SOL    HW2 2240   0.896   2.504   5.973  0.6138  1.5667 -1.3088
  264SOL     OW 2241   4.484   2.113   4.549  0.3496 -0.1744 -0.3866
  264SOL    HW1 2242   4.563   2.110   4.603  0.1923 -1.8082 -0.1844
  264SOL    HW2 2243   4.450   2.201   4.561  1.7242  0.3205  0.1166
  265SOL     OW 2244   5.067   4.182   6.147  0.4352 -0.0709  0.8503
  265SOL    HW1 2245   4.984   4.135   6.139  0.4190 -0.2241  1.7370
  265SOL    HW2 2246   5.134   4.115   6.138  0.4631  0.0265  0.3022
  266SOL     OW 2247   2.105   6.260   5.570 -0.0780 -0.3246 -0.1824
  266SOL    HW1 2248   2.198   6.246   5.589  0.2958  0.3399 -1.3698
  266SOL    HW2 2249   2.103   6.344   5.524 -1.0748 -1.0181 -1.4839
  267SOL     OW 2250   0.858   0.506   0.749  0.7483  0.3020  0.3721
  267SOL    HW1 2251   0.823   0.471   0.667  0.6759 -0.1024  0.5734
  267SOL    HW2 2252   0.838   0.599   0.745 -0.5958  0.0421  0.5974
  268SOL     OW 2253   2.958   1.809   0.696 -0.2929  0.3810  0.2359
  268SOL    HW1 2254   2.903   1.753   0.642  0.2926 -0.0538  0.0700
  268SOL    HW2 2255   2.897   1.858   0.751 -1.0718  2.4796 -2.2955
  269SOL     OW 2256   6.674   6.601   0.342  1.1197 -0.3479  0.2705
  269SOL    HW1 2257   6.632   6.515   0.340 -0.0053  0.1838 -0.5743
  269SOL    HW2 2258   6.614   6.656   0.393  1.4007  0.1369  0.0884
  270SOL     OW 2259   3.816   6.065   3.801  0.2815 -0.2225 -0.0872
  270SOL    HW1 2260   3.851   5.994   3.748 -0.5450  0.6014 -1.8133
  270SOL    HW2 2261   3.893   6.101   3.846  1.5107  0.5710 -2.6166
  271SOL     OW 2262   2.017   4.050   2.850  0.5802 -0.5082  0.0049
  271SOL    HW1 2263   1.961   4.076   2.923  0.1433 -1.1402 -0.0919
  271SOL    HW2 2264   1.963   4.063   2.772  1.3164  0.9214 -0.2936
  272SOL     OW 2265   1.236   5.553   1.600 -0.0663  0.0171 -0.1135
  272SOL    HW1 2266   1.300   5.506   1.547  0.8065 -0.1908  1.0871
  272SOL    HW2 2267   1.288   5.597   1.667 -1.1064  0.5633  0.3628
  273SOL     OW 2268   4.121   4.320   1.088 -0.3643  0.1003  0.2047
  273SOL    HW1 2269   4.120   4.373   1.167 -0.3161 -1.2135  1.1058
  273SOL    HW2 2270   4.180   4.367   1.029 -0.8745  1.4084  0.7093
  274SOL     OW 2271   0.299   2.885   0.630 -0.1658 -0.0995  0.7549
  274SOL    HW1 2272   0.252   2.818   0.679 -1.3152  0.6998  0.7830
  274SOL    HW2 2273   0.246   2.899   0.552  1.9953 -1.8856 -1.2009
  275SOL     OW 2274   4.653   0.700   2.877  0.0734  0.3523 -0.2296
  275SOL    HW1 2275   4.724   0.641   2.904  0.6778  1.4553  0.6230
  275SOL    HW2 2276   4.670   0.782   2.923 -0.7853  1.1976 -1.3537
  276SOL     OW 2277   2.363   3.065   5.020 -0.0604 -0.1439 -0.1183
  276SOL    HW1 2278   2.401   3.150   5.046  2.2404 -1.5601  1.6069
  276SOL    HW2 2279   2.302   3.044   5.091  1.3241 -1.0227  0.8854
  277SOL     OW 2280   5.296   6.788   1.825  0.4052  0.0140 -0.2297
  277SOL    HW1 2281   5.201   6.777   1.819  0.5811 -1.0594 -2.3256
  277SOL    HW2 2282   5.326   6.714   1.879  0.1517 -0.5159 -0.7996
  278SOL     OW 2283   6.348   3.567   0.494 -0.3109  0.2171  0.3861
  278SOL    HW1 2284   6.297   3.625   0.551 -0.2887 -0.9682  1.6436
  278SOL    HW2 2285   6.438   3.597   0.504 -0.6207  1.9752 -1.4335
  279SOL     OW 2286   4.415   3.435   2.013 -0.0624  0.0543  0.0880
  279SOL    HW1 2287   4.507   3.458   2.015  0.0121 -0.2767  1.0549
  279SOL    HW2 2288   4.413   3.346   1.978  0.0224 -0.0476  0.3335
  280SOL     OW 2289   5.352   0.591   4.176  0.0309  0.3341  0.1787
  280SOL    HW1 2290   5.266   0.628   4.194  0.3270  2.0112 -1.5122
  280SOL    HW2 2291   5.361   0.597   4.081  2.3543  1.0561  0.3843
  281SOL     OW 2292   5.400   3.246   2.716 -0.7524 -0.3366  0.9961
  281SOL    HW1 2293   5.357   3.282   2.639  0.0149 -0.7548  0.3490
  281SOL    HW2 2294   5.412   3.320   2.775  1.1401  0.6040 -0.4592
  282SOL     OW 2295   6.016   2.284   5.525 -0.8567  0.0366 -0.5474
  282SOL    HW1 2296   5.995   2.192   5.508  1.3203 -1.0822  2.1743
  282SOL    HW2 2297   6.003   2.294   5.619 -0.7994  2.4906 -0.7602
  283SOL     OW 2298   1.714   4.144   6.774 -0.1191 -0.1978 -1.0534
  283SOL    HW1 2299   1.720   4.058   6.732 -1.4258 -1.2856  0.8584
  283SOL    HW2 2300   1.798   4.154   6.819 -1.1235 -2.0769  1.4847
  284SOL     OW 2301   2.596   6.437   5.325 -0.3904  0.6391  0.6376
  284SOL    HW1 2302   2.529   6.369   5.325  0.7122 -0.4995  0.4256
  284SOL    HW2 2303   2.548   6.519   5.329 -1.7630 -0.1584  1.2732
  285SOL     OW 2304   0.113   6.849   3.995 -0.3087 -0.0392 -0.8023
  285SOL    HW1 2305   0.053   6.904   4.046 -0.7818 -1.2829  0.0132
  285SOL    HW2 2306   0.183   6.827   4.056 -0.6428 -1.1606 -0.8059
  286SOL     OW 2307   4.975   0.307   2.799  0.5646  0.5006  0.4507
  286SOL    HW1 2308   4.985   0.303   2.704 -1.9519 -1.2020  0.1601
  286SOL    HW2 2309   5.034   0.241   2.833 -0.9379 -1.3019 -0.2655
  287SOL     OW 2310   0.983   6.002   1.941 -0.5852  0.0041  0.2772
  287SOL    HW1 2311   0.937   5.919   1.954  0.5194 -0.4854  1.3056
  287SOL    HW2 2312   1.055   5.980   1.882 -0.2794  0.2078  0.5689
  288SOL     OW 2313   0.674   2.541   6.343  0.0096  0.6567  0.3860
  288SOL    HW1 2314   0.580   2.529   6.358  0.1736 -1.7422 -0.0928
  288SOL    HW2 2315   0.713   2.536   6.431 -0.2416  1.0007  0.5200
  289SOL     OW 2316   2.065   4.661   3.163  0.5586 -0.1459 -0.2792
  289SOL    HW1 2317   2.135   4.700   3.215  0.6725 -1.2512  0.4439
  289SOL    HW2 2318   1.985   4.701   3.196  0.8460  1.2537 -1.2282
  290SOL     OW 2319   3.714   1.430   5.485  0.3743  0.2175 -0.5442
  290SOL    HW1 2320   3.691   1.389   5.568 -0.3454 -1.1055 -1.3533
  290SOL    HW2 2321   3.793   1.384   5.457  2.3145  2.5600  0.6827
  291SOL     OW 2322   1.748   0.039   5.384 -0.6085 -0.2711 -0.2622
  291SOL    HW1 2323   1.767   0.132   5.376 -0.6049 -0.3592 -1.4905
  291SOL    HW2 2324   1.785   0.014   5.469  1.1800  0.4234 -0.7872
  292SOL     OW 2325   0.683   4.791   1.827 -0.3421 -0.0451  0.4743
  292SOL    HW1 2326   0.591   4.796   1.801 -0.0420 -0.3857 -0.7191
  292SOL    HW2 2327   0.719   4.719   1.775  0.9132  0.9580 -0.0974
  293SOL     OW 2328   5.646   1.517   2.247 -0.6008  0.5777  0.3145
  293SOL    HW1 2329   5.690   1.500   2.330 -2.5321  1.9845  1.7133
  293SOL    HW2 2330   5.716   1.514   2.182  0.9519 -0.7395  1.9378
  294SOL     OW 2331   6.010   5.692   4.399 -0.6068  0.0352 -0.2725
  294SOL    HW1 2332   5.939   5.629   4.411 -0.5902  0.1132  0.2904
  294SOL    HW2 2333   6.064   5.655   4.329 -0.3567 -0.7937  0.3428
  295SOL     OW 2334   0.768   0.490   5.774  0.0641 -0.6882  0.5348
  295SOL    HW1 2335   0.724   0.555   5.719  0.2563 -0.6108  0.4717
  295SOL    HW2 2336   0.698   0.429   5.799  0.2641 -1.6633 -1.1359
  296SOL     OW 2337   4.561   2.187   4.178  0.1581  0.5133 -0.2808
  296SOL    HW1 2338   4.585   2.128   4.107  0.0523  0.2536 -0.1048
  296SOL    HW2 2339   4.603   2.270   4.156  0.6992  0.2428 -0.2972
  297SOL     OW 2340   1.578   4.319   4.547  0.3469 -0.1905  0.0767
  297SOL    HW1 2341   1.546   4.396   4.593  0.0352 -1.6874  2.5754
  297SOL    HW2 2342   1.662   4.300   4.589  1.3208 -0.2021 -1.7723
  298SOL     OW 2343   4.488   6.177   4.121  0.0501 -0.0962  0.5590
  298SOL    HW1 2344   4.470   6.218   4.205 -0.3534  0.6525  0.1232
  298SOL    HW2 2345   4.582   6.160   4.121  0.2283  0.8870  0.7297
  299SOL     OW 2346   2.861   0.730   6.740  0.1921 -0.7424  0.6677
  299SOL    HW1 2347   2.953   0.704   6.750  1.6840  3.3062 -0.7027
  299SOL    HW2 2348   2.851   0.805   6.799 -1.3163  0.6757 -1.2609
  300SOL     OW 2349   5.576   5.507   0.989  0.0403  0.5902  0.2945
  300SOL    HW1 2350   5.654   5.501   1.044 -0.6273  0.7407  1.2816
  300SOL    HW2 2351   5.528   5.583   1.023 -0.4671  0.5878 -0.3869
  301SOL     OW 2352   5.706   3.841   3.140 -0.4624  0.2435 -0.8726
  301SOL    HW1 2353   5.794   3.879   3.137 -0.0631 -0.5934 -0.2240
  301SOL    HW2 2354   5.675   3.844   3.050 -0.4853  2.1647 -0.8395
  302SOL     OW 2355   1.196   4.330   2.930  0.1897  0.5600 -0.0395
  302SOL    HW1 2356   1.109   4.290   2.919 -0.6897  1.7699  1.9533
  302SOL    HW2 2357   1.217   4.364   2.843 -0.9500 -0.4909 -0.7620
  303SOL     OW 2358   0.708   4.632   4.103 -0.0290 -0.6092 -0.0161
  303SOL    HW1 2359   0.731   4.574   4.031  1.1189 -0.5172  0.2553
  303SOL    HW2 2360   0.651   4.698   4.063  2.0695  0.5333 -1.3069
  304SOL     OW 2361   4.928   6.063   5.416 -0.0111  0.3260  0.6030
  304SOL    HW1 2362   4.990   6.060   5.488  0.4164 -1.8362  0.1996
  304SOL    HW2 2363   4.951   5.989   5.360 -2.0309  0.3253 -0.3366
  305SOL     OW 2364   4.196   0.540   0.435  0.3068  0.1857 -0.1967
  305SOL    HW1 2365   4.202   0.462   0.491  0.8203 -0.4820 -1.1613
  305SOL    HW2 2366   4.281   0.583   0.445  0.1508  0.4398  0.0593
  306SOL     OW 2367   3.710   6.479   4.860 -0.0980  0.6999 -0.2788
  306SOL    HW1 2368   3.675   6.542   4.923  1.6374  0.7229  0.7314
  306SOL    HW2 2369   3.676   6.395   4.889 -1.5496  1.0231 -0.9903
  307SOL     OW 2370   1.172   0.978   4.681 -0.3907  0.0104  0.6176
  307SOL    HW1 2371   1.216   0.899   4.651 -2.5955 -1.7181  1.5857
  307SOL    HW2 2372   1.239   1.046   4.679  1.0467 -1.2994 -2.4333
  308SOL     OW 2373   2.517   5.918   2.332 -0.2521 -0.4158 -0.5895
  308SOL    HW1 2374   2.536   5.826   2.315  0.4359 -0.2335 -0.8262
  308SOL    HW2 2375   2.556   5.965   2.259  0.2437  0.1418  0.0209
  309SOL     OW 2376   0.163   4.975   2.809  0.7241  0.2364 -0.1737
  309SOL    HW1 2377   0.119   5.059   2.823  2.4951  1.0687  0.7110
  309SOL    HW2 2378   0.235   4.995   2.750 -0.0771 -1.1305 -1.7096
  310SOL     OW 2379   5.727   0.147   1.352 -0.3373  0.3408 -0.0940
  310SOL    HW1 2380   5.700   0.081   1.288  1.3377  1.1658 -1.7348
  310SOL    HW2 2381   5.678   0.125   1.431 -1.4400 -1.5517 -1.2337
  311SOL     OW 2382   1.751   5.342   6.360  0.4012  0.1693 -0.5363
  311SOL    HW1 2383   1.828   5.384   6.323 -0.0834  0.3835 -1.3317
  311SOL    HW2 2384   1.785   5.286   6.429  1.3419 -0.2945 -1.3549
  312SOL     OW 2385   5.656   0.541   3.950 -0.6759  0.8461  0.1856
  312SOL    HW1 2386   5.704   0.473   3.904 -0.5887  0.6339  0.5791
  312SOL    HW2 2387   5.598   0.493   4.010 -0.1485  1.1160  0.9323
  313SOL     OW 2388   2.135   0.649   6.855 -0.3224  0.0115 -0.3129
  313SOL    HW1 2389   2.065   0.674   6.915  0.8278  0.9780  0.6869
  313SOL    HW2 2390   2.118   0.557   6.835 -2.5943  0.5547 -1.1660
  314SOL     OW 2391   4.246   0.047   5.882  0.0128  0.1578  0.6965
  314SOL    HW1 2392   4.199   0.068   5.801 -0.3196  0.7653  1.0336
  314SOL    HW2 2393   4.177   0.020   5.943  0.2363 -0.0934  0.8401
  315SOL     OW 2394   3.089   6.789   1.987  0.1243  0.0615 -0.4812
  315SOL    HW1 2395   3.128   6.865   2.030  1.0925  0.0614 -1.3218
  315SOL    HW2 2396   3.102   6.718   2.050  1.0715  0.1677 -0.5312
  316SOL     OW 2397   3.425   4.635   5.547  0.0034 -0.2272 -0.1719
  316SOL    HW1 2398   3.345   4.590   5.518  0.1413 -0.1801 -0.6272
  316SOL    HW2 2399   3.477   4.645   5.467 -0.1720  1.0378 -0.1340
  317SOL     OW 2400   2.914   2.435   1.323 -0.1948  0.4954  0.2710
  317SOL    HW1 2401   2.994   2.385   1.337 -0.0055  1.6291  4.3698
  317SOL    HW2 2402   2.844   2.376   1.349 -0.2408  1.1665  1.7242
  318SOL     OW 2403   3.686   5.816   4.520  0.2608 -0.1368 -0.3266
  318SOL    HW1 2404   3.660   5.725   4.538  2.1717 -0.8940 -1.1221
  318SOL    HW2 2405   3.755   5.834   4.584 -0.8267  1.1680  0.5308
  319SOL     OW 2406   1.132   7.137   2.521 -0.2547  0.6148  0.5291
  319SOL    HW1 2407   1.203   7.167   2.577 -1.4628  0.0342  2.4702
  319SOL    HW2 2408   1.067   7.207   2.527 -1.4388 -0.5362  1.9369
  320SOL     OW 2409   1.604   6.354   0.615 -0.5378  0.6055 -0.1709
  320SOL    HW1 2410   1.614   6.325   0.524  0.4701  1.4390 -0.3407
  320SOL    HW2 2411   1.582   6.273   0.663  0.8568 -0.2026 -0.8416
  321SOL     OW 2412   4.626   5.709   2.953  0.3282 -0.8657 -0.6097
  321SOL    HW1 2413   4.700   5.673   2.904  0.6680  0.7377 -1.3307
  321SOL    HW2 2414   4.550   5.690   2.898  0.5218 -0.3811 -1.0534
  322SOL     OW 2415   6.965   5.019   2.979  0.1434 -0.4129  0.1207
  322SOL    HW1 2416   7.020   5.070   2.920 -1.6273  2.2462  0.6142
  322SOL    HW2 2417   7.028   4.973   3.036  1.8285  0.0051 -1.2992
  323SOL     OW 2418   5.975   2.627   6.306 -0.0631 -0.3882 -0.1180
  323SOL    HW1 2419   6.022   2.546   6.287  0.7848 -0.3474  1.6073
  323SOL    HW2 2420   6.044   2.692   6.318 -0.6733  0.2628 -0.0763
  324SOL     OW 2421   3.647   5.394   5.139 -0.3450 -0.1375 -0.5718
  324SOL    HW1 2422   3.727   5.340   5.142 -1.3940 -1.7735 -0.6367
  324SOL    HW2 2423   3.615   5.383   5.049  0.0622  1.6176 -0.9586
  325SOL     OW 2424   6.380   2.480   2.729  0.1180 -0.0550 -0.1278
  325SOL    HW1 2425   6.397   2.421   2.655  0.4830  0.5222 -0.5098
  325SOL    HW2 2426   6.386   2.568   2.692 -0.6258  0.2260  0.3960
  326SOL     OW 2427   5.017   2.156   5.530  0.6856  0.1846 -0.0613
  326SOL    HW1 2428   5.044   2.203   5.608 -1.9952  0.3503  0.8683
  326SOL    HW2 2429   5.020   2.063   5.555 -1.1143  0.2782  0.6418
  327SOL     OW 2430   0.653   6.261   3.324 -0.3091 -0.0994  0.2654
  327SOL    HW1 2431   0.630   6.354   3.318  0.2336  0.0902  0.9945
  327SOL    HW2 2432   0.649   6.229   3.234 -0.8684  0.5397  0.0576
  328SOL     OW 2433   4.066   2.568   2.331  0.1884  0.4096 -0.0564
  328SOL    HW1 2434   3.996   2.522   2.377  0.1426  1.1786  0.6837
  328SOL    HW2 2435   4.020   2.630   2.274  0.1881 -1.8345 -2.6537
  329SOL     OW 2436   1.539   2.779   1.859 -0.4935 -0.4831  0.4339
  329SOL    HW1 2437   1.493   2.759   1.941 -0.5814  0.3177  0.5837
  329SOL    HW2 2438   1.597   2.704   1.846  0.4994 -0.0176  1.9337
  330SOL     OW 2439   4.520   5.168   2.712 -0.3411 -0.1046  0.3480
  330SOL    HW1 2440   4.467   5.222   2.653  0.3681 -1.7609 -1.9323
  330SOL    HW2 2441   4.583   5.126   2.655  2.4731  0.5503  2.7443
  331SOL     OW 2442   0.801   3.658   3.412  0.3929  0.3857  0.6033
  331SOL    HW1 2443   0.722   3.646   3.359 -0.0137 -0.8792  1.4665
  331SOL    HW2 2444   0.774   3.720   3.480 -0.1839 -0.8527  1.5245
  332SOL     OW 2445   3.391   1.795   7.060 -0.4166 -0.3391 -0.1148
  332SOL    HW1 2446   3.468   1.824   7.108 -1.0845  0.3757  0.5605
  332SOL    HW2 2447   3.361   1.717   7.107 -0.4042 -0.3155 -0.0685
  333SOL     OW 2448   1.343   0.661   1.922 -0.3563  0.2814 -0.4546
  333SOL    HW1 2449   1.277   0.631   1.986 -0.0667 -1.6528 -0.9896
  333SOL    HW2 2450   1.358   0.585   1.867  1.4467  1.0722 -1.1124
  334SOL     OW 2451   4.144   1.756   5.409 -0.6722 -0.1351 -0.3485
  334SOL    HW1 2452   4.136   1.692   5.338  0.3436 -0.1980 -0.4176
  334SOL    HW2 2453   4.054   1.786   5.424 -1.0267 -0.8288 -1.0024
  335SOL     OW 2454   0.408   4.235   7.066  0.1739  0.1333 -0.0683
  335SOL    HW1 2455   0.318   4.201   7.068  0.2421 -0.0967 -0.8463
  335SOL    HW2 2456   0.404   4.312   7.009  0.1667  1.0591  1.1253
  336SOL     OW 2457   3.755   5.246   0.205 -0.3535 -0.3868  0.1957
  336SOL    HW1 2458   3.710   5.194   0.272  0.9444  0.7432  2.0509
  336SOL    HW2 2459   3.782   5.325   0.251  0.6863  0.4079 -1.6771
  337SOL     OW 2460   7.044   6.708   6.021  0.0765  0.4627 -0.5706
  337SOL    HW1 2461   6.994   6.644   5.970  0.5608  0.9752 -1.7404
  337SOL    HW2 2462   7.073   6.660   6.098 -0.0044 -0.5869 -1.1660
  338SOL     OW 2463   0.308   2.583   6.723 -0.0668  0.0267 -0.6484
  338SOL    HW1 2464   0.220   2.616   6.705  0.0549  0.6000 -0.2395
  338SOL    HW2 2465   0.316   2.586   6.818  0.3010 -0.2711 -0.6668
  339SOL     OW 2466   6.300   5.848   2.121 -0.6745  0.2279 -0.0860
  339SOL    HW1 2467   6.359   5.808   2.057  2.8084  0.5414  2.6162
  339SOL    HW2 2468   6.335   5.936   2.133 -2.5742  0.9031  0.6845
  340SOL     OW 2469   4.310   3.602   6.008  0.0394  0.2018  0.4607
  340SOL    HW1 2470   4.234   3.651   6.039 -0.3255  0.3505 -0.6338
  340SOL    HW2 2471   4.365   3.592   6.086 -0.0964  1.9217  0.8266
  341SOL     OW 2472   0.811   4.324   5.235  0.3393 -0.0701  0.2205
  341SOL    HW1 2473   0.792   4.333   5.142  4.3264  0.9658 -0.7129
  341SOL    HW2 2474   0.836   4.232   5.245  2.2898  0.3431 -0.3978
  342SOL     OW 2475   1.251   1.445   6.915 -0.1759 -0.0658  0.0166
  342SOL    HW1 2476   1.264   1.355   6.944  1.5274 -0.7795 -2.6539
  342SOL    HW2 2477   1.339   1.476   6.894 -0.9015  1.6762 -0.6143
  343SOL     OW 2478   3.539   2.767   2.902  0.0023  0.3297 -0.4531
  343SOL    HW1 2479   3.489   2.691   2.872  0.3228 -0.4208  0.8609
  343SOL    HW2 2480   3.514   2.837   2.841 -0.8066 -0.6418 -1.2796
  344SOL     OW 2481   1.637   4.843   7.002 -0.2177  0.7660 -0.4809
  344SOL    HW1 2482   1.567   4.908   6.992  0.7448  1.7710 -1.0376
  344SOL    HW2 2483   1.657   4.816   6.912 -0.6424 -0.3686 -0.2493
  345SOL     OW 2484   6.659   3.057   6.020  0.0983  0.2928  0.2530
  345SOL    HW1 2485   6.686   3.147   5.998 -0.2516  0.5436  0.8312
  345SOL    HW2 2486   6.682   3.047   6.112 -0.5114  0.0365  0.3845
  346SOL     OW 2487   2.582   5.425   5.066  0.5540  0.2547 -0.3870
  346SOL    HW1 2488   2.642   5.432   5.140  0.5930 -1.7309 -0.1780
  346SOL    HW2 2489   2.494   5.426   5.105  0.5761 -0.8585 -0.2803
  347SOL     OW 2490   1.907   0.586   5.156  0.3427  0.1208 -0.1106
  347SOL    HW1 2491   1.845   0.655   5.182  1.3753  1.1171 -0.2229
  347SOL    HW2 2492   1.851   0.512   5.131 -0.7492  0.2132  1.8907
  348SOL     OW 2493   6.126   5.702   3.882  0.4660 -0.2686  0.1919
  348SOL    HW1 2494   6.098   5.793   3.896 -2.4878 -0.8231 -1.4347
  348SOL    HW2 2495   6.220   5.709   3.866  0.0797  2.7516 -1.5349
  349SOL     OW 2496   6.422   2.056   2.250  0.0370 -0.3639  0.1769
  349SOL    HW1 2497   6.408   1.970   2.289 -0.1134  0.5613  2.2928
  349SOL    HW2 2498   6.478   2.102   2.313 -0.6182  1.3917 -0.4598
  350SOL     OW 2499   2.273   6.978   3.014  0.6406 -0.1734  0.7173
  350SOL    HW1 2500   2.240   6.889   3.026  0.2429 -0.0347  0.6679
  350SOL    HW2 2501   2.197   7.028   2.984  1.4828 -0.4406 -2.2402
  351SOL     OW 2502   0.991   1.450   0.052 -0.1576  0.2118 -0.1665
  351SOL    HW1 2503   1.054   1.493   0.110  0.0152  1.0668 -0.9601
  351SOL    HW2 2504   0.912   1.439   0.106  0.4006 -0.1631  0.5996
  352SOL     OW 2505   1.521   0.329   0.920 -0.0642 -0.2505  0.4988
  352SOL    HW1 2506   1.530   0.296   0.831 -0.6272 -1.6168  0.9246
  352SOL    HW2 2507   1.439   0.379   0.919  1.1312  1.8394 -0.3192
  353SOL     OW 2508   1.180   0.310   2.072  0.3260  0.5674 -0.1422
  353SOL    HW1 2509   1.089   0.338   2.073  0.5817  1.4412  0.0583
  353SOL    HW2 2510   1.198   0.286   2.163 -0.5172 -2.4756 -0.6867
  354SOL     OW 2511   5.372   6.710   2.829  0.0383  0.9305  0.1414
  354SOL    HW1 2512   5.367   6.664   2.745  0.0022 -0.1151  0.7017
  354SOL    HW2 2513   5.430   6.657   2.883 -0.6528  1.0937  1.0843
  355SOL     OW 2514   3.036   1.098   2.268 -0.2874  0.5810  0.2611
  355SOL    HW1 2515   2.942   1.086   2.279 -0.0436  0.1430  2.0529
  355SOL    HW2 2516   3.047   1.193   2.259 -0.8326  0.6870  0.6879
  356SOL     OW 2517   1.842   5.922   3.091 -0.1250  0.1201 -0.2558
  356SOL    HW1 2518   1.789   5.877   3.156  1.5568 -1.0188  0.3907
  356SOL    HW2 2519   1.879   5.997   3.138 -0.8911  0.7550 -0.6316
  357SOL     OW 2520   2.307   4.215   3.470  0.1334 -0.3662 -0.3613
  357SOL    HW1 2521   2.315   4.148   3.538 -0.1430 -0.8078 -0.7569
  357SOL    HW2 2522   2.382   4.200   3.412  0.8080  0.5018  0.2614
  358SOL     OW 2523   0.290   1.509   6.439 -0.1850 -0.4684  0.1196
  358SOL    HW1 2524   0.343   1.588   6.427  1.5969 -1.6449 -0.2229
  358SOL    HW2 2525   0.250   1.493   6.354 -1.6139  0.7515  0.5325
  359SOL     OW 2526   3.983   1.933   2.027  0.4009 -0.2252  0.2722
  359SOL    HW1 2527   4.008   2.012   2.074  0.0905  1.3319 -2.0042
  359SOL    HW2 2528   3.888   1.933   2.028  0.3673  0.2799 -0.9767
  360SOL     OW 2529   1.986   0.806   2.530  0.3591  0.0343  0.0485
  360SOL    HW1 2530   1.988   0.715   2.558 -0.1217 -0.0086 -0.0579
  360SOL    HW2 2531   1.938   0.806   2.448  2.1976  0.0894 -1.1007
  361SOL     OW 2532   0.540   3.081   6.197  0.3901 -0.1648  0.0344
  361SOL    HW1 2533   0.621   3.040   6.169 -0.8742 -1.4752 -2.0019
  361SOL    HW2 2534   0.509   3.028   6.270 -0.0626 -1.4874 -1.0812
  362SOL     OW 2535   0.484   2.446   4.777  0.4050  0.2824 -0.3530
  362SOL    HW1 2536   0.481   2.445   4.873 -0.4894  1.9976 -0.3223
  362SOL    HW2 2537   0.566   2.402   4.756 -0.1925 -1.6730  1.1156
  363SOL     OW 2538   2.592   2.870   1.656 -0.0978 -0.2174 -0.1090
  363SOL    HW1 2539   2.670   2.849   1.606 -0.8042  0.2261 -1.4510
  363SOL    HW2 2540   2.520   2.830   1.607 -0.8277  0.2798  0.5230
  364SOL     OW 2541   2.157   1.805   6.349  0.4502 -0.0356  0.1985
  364SOL    HW1 2542   2.159   1.782   6.442  0.5018  1.0831  0.4896
  364SOL    HW2 2543   2.127   1.725   6.305 -2.1792  0.1605  1.4492
  365SOL     OW 2544   5.807   1.830   1.278  0.0669  0.2589  0.1090
  365SOL    HW1 2545   5.852   1.827   1.194  0.2389 -0.6935  0.2204
  365SOL    HW2 2546   5.841   1.909   1.321 -1.9985  2.3202 -1.7627
  366SOL     OW 2547   0.982   5.510   3.485 -0.0044 -0.3840 -0.4203
  366SOL    HW1 2548   0.943   5.597   3.479 -0.4169 -0.5536 -0.2948
  366SOL    HW2 2549   0.973   5.473   3.397  1.4205  0.2123 -0.8267
  367SOL     OW 2550   4.079   2.818   2.149 -0.0766  0.6578 -0.1908
  367SOL    HW1 2551   4.106   2.862   2.230  1.2858  1.5102 -1.0714
  367SOL    HW2 2552   4.019   2.879   2.107 -1.4285 -0.1276  0.5162
  368SOL     OW 2553   2.990   0.635   3.875  0.0928 -0.1710  0.1947
  368SOL    HW1 2554   2.900   0.606   3.883 -0.0908  0.5006  0.6873
  368SOL    HW2 2555   3.043   0.556   3.884 -0.4318 -0.5068  0.3024
  369SOL     OW 2556   0.839   5.912   3.320 -0.6019  0.0498  0.7477
  369SOL    HW1 2557   0.931   5.918   3.294 -0.6437  1.4115  0.8755
  369SOL    HW2 2558   0.820   5.995   3.362 -2.5116  0.7474 -1.2999
  370SOL     OW 2559   4.390   0.400   0.732 -0.0390  0.1746 -0.0261
  370SOL    HW1 2560   4.427   0.485   0.708  1.4536 -0.0724  1.2120
  370SOL    HW2 2561   4.303   0.421   0.767  0.8423  1.4073  1.5857
  371SOL     OW 2562   7.038   3.129   1.489 -0.7486 -0.1324 -0.2590
  371SOL    HW1 2563   7.080   3.059   1.438 -0.2685  0.8959 -1.3312
  371SOL    HW2 2564   6.978   3.084   1.548  0.5410 -1.5380  0.0393
  372SOL     OW 2565   0.725   3.976   1.911 -0.3335 -0.1876 -1.0484
  372SOL    HW1 2566   0.634   4.007   1.910 -0.3872 -0.3174 -0.3935
  372SOL    HW2 2567   0.724   3.898   1.856 -0.4909  0.1602 -1.5473
  373SOL     OW 2568   0.741   5.155   2.347  0.2208  0.0082 -0.0810
  373SOL    HW1 2569   0.719   5.068   2.381 -2.6480  1.1547  1.3612
  373SOL    HW2 2570   0.725   5.149   2.253 -0.7125 -0.8417  0.1072
  374SOL     OW 2571   5.159   5.202   4.738 -0.2579  0.6239 -0.1752
  374SOL    HW1 2572   5.135   5.218   4.647  0.4509  1.4490 -0.2358
  374SOL    HW2 2573   5.160   5.107   4.746 -1.1117  0.5484 -0.8045
  375SOL     OW 2574   6.265   5.120   2.002  0.5343  0.4501  0.1307
  375SOL    HW1 2575   6.225   5.148   2.084  2.1911  1.0604  0.7765
  375SOL    HW2 2576   6.191   5.105   1.942 -0.5782  3.0704  0.7433
  376SOL     OW 2577   6.798   2.528   6.236  0.0637  0.1143  0.3444
  376SOL    HW1 2578   6.818   2.531   6.143  3.0020  0.0227  0.8756
  376SOL    HW2 2579   6.772   2.437   6.252 -2.5518  0.5887 -0.6440
  377SOL     OW 2580   5.381   5.932   7.121  0.4178  0.4582  0.0135
  377SOL    HW1 2581   5.290   5.914   7.142  0.2213  1.6002  0.1962
  377SOL    HW2 2582   5.403   5.870   7.051 -0.7455  0.7441 -0.6196
  378SOL     OW 2583   6.577   5.748   5.060  0.2361 -0.6192 -0.0337
  378SOL    HW1 2584   6.532   5.756   4.976  0.3923  1.6276  0.0389
  378SOL    HW2 2585   6.514   5.782   5.124  2.0219  3.1778  0.0085
  379SOL     OW 2586   5.398   4.031   3.893  0.2576 -0.2013  0.1403
  379SOL    HW1 2587   5.318   4.006   3.940  0.9733 -0.8310  1.0639
  379SOL    HW2 2588   5.367   4.082   3.818 -0.8570  2.0306  1.9972
  380SOL     OW 2589   1.626   3.012   2.612 -0.2450 -0.3496  0.4431
  380SOL    HW1 2590   1.666   2.925   2.609 -1.7690 -1.1955  2.3508
  380SOL    HW2 2591   1.536   2.996   2.640 -0.6216  1.8435  0.6451
  381SOL     OW 2592   0.676   2.324   6.146 -0.2696  0.1059 -0.0761
  381SOL    HW1 2593   0.694   2.391   6.211  0.5807 -0.4932  0.3108
  381SOL    HW2 2594   0.657   2.245   6.197 -0.7299 -0.0893 -0.5373
  382SOL     OW 2595   0.293   3.193   0.508 -0.1387 -0.7380 -0.1025
  382SOL    HW1 2596   0.379   3.199   0.467 -0.3507  1.9361 -0.3505
  382SOL    HW2 2597   0.245   3.130   0.455  0.5124  0.4998 -2.2852
  383SOL     OW 2598   3.822   4.545   6.825 -0.2667 -0.2378  0.0030
  383SOL    HW1 2599   3.889   4.483   6.794 -0.1655 -0.0117 -0.2353
  383SOL    HW2 2600   3.865   4.630   6.820  0.0929 -0.2698  1.6697
  384SOL     OW 2601   4.512   7.004   2.338 -0.4128 -0.4341 -0.0290
  384SOL    HW1 2602   4.566   6.970   2.409  0.0127  1.7475  0.7850
  384SOL    HW2 2603   4.423   7.007   2.375 -0.4880 -0.8179 -0.1727
  385SOL     OW 2604   4.304   4.123   1.793 -0.5079 -0.6443  0.6960
  385SOL    HW1 2605   4.286   4.184   1.722 -1.5215 -0.7123  0.8795
  385SOL    HW2 2606   4.342   4.046   1.750  0.0993 -0.1781  0.3841
  386SOL     OW 2607   2.454   0.508   3.568 -0.4489  0.3755 -0.0702
  386SOL    HW1 2608   2.501   0.432   3.536 -0.4554  0.2550  0.2015
  386SOL    HW2 2609   2.521   0.560   3.613 -0.4920  0.4140 -0.0506
  387SOL     OW 2610   1.270   3.002   6.206 -0.4565  0.0472  0.3270
  387SOL    HW1 2611   1.256   2.924   6.260 -0.0646 -1.8427 -2.0764
  387SOL    HW2 2612   1.356   2.989   6.167 -2.0015 -0.5766 -3.3694
  388SOL     OW 2613   2.397   4.596   4.332 -0.4314 -0.6591 -0.9702
  388SOL    HW1 2614   2.369   4.646   4.409  0.0631 -1.5263 -0.2000
  388SOL    HW2 2615   2.393   4.658   4.260  0.9883  0.7498  0.0864
  389SOL     OW 2616   0.049   3.435   2.083  0.3721 -0.3785  0.6596
  389SOL    HW1 2617  -0.004   3.410   2.159 -1.3890 -0.6274 -0.5915
  389SOL    HW2 2618   0.120   3.370   2.082 -0.6202 -1.5013  1.0377
  390SOL     OW 2619   0.321   6.626   6.863 -0.1873 -0.3781  0.5724
  390SOL    HW1 2620   0.298   6.716   6.882  2.1513  0.5940 -0.7780
  390SOL    HW2 2621   0.237   6.580   6.859 -1.3338  1.2389  3.3140
  391SOL     OW 2622   0.086   5.730   1.129  0.2945 -0.8647 -0.7089
  391SOL    HW1 2623   0.110   5.728   1.037  1.6686  0.4255 -0.4173
  391SOL    HW2 2624   0.114   5.645   1.163  0.8030 -0.9140 -1.2506
  392SOL     OW 2625   0.555   5.817   1.922  0.3372  0.2945 -0.1278
  392SOL    HW1 2626   0.567   5.833   2.016 -0.1189  2.1623 -0.3316
  392SOL    HW2 2627   0.641   5.793   1.890  0.5907  0.0615  0.7089
  393SOL     OW 2628   0.654   1.653   3.252  0.5640 -0.5378  0.5179
  393SOL    HW1 2629   0.681   1.727   3.197 -3.2287  1.8587  1.5127
  393SOL    HW2 2630   0.687   1.676   3.339 -0.2027 -0.2307  0.7327
  394SOL     OW 2631   3.312   1.067   4.847  0.3258  0.2566 -0.2360
  394SOL    HW1 2632   3.219   1.078   4.867  0.1186 -1.7077  0.0982
  394SOL    HW2 2633   3.357   1.128   4.906 -0.7476  1.6074 -0.7698
  395SOL     OW 2634   1.889   5.318   2.662  0.2889  0.2636  0.0174
  395SOL    HW1 2635   1.811   5.285   2.706 -0.4458  0.8651 -0.7868
  395SOL    HW2 2636   1.938   5.240   2.638 -0.3714 -0.1515 -0.0062
  396SOL     OW 2637   6.552   5.945   0.830 -0.0661 -0.5094 -0.4901
  396SOL    HW1 2638   6.557   5.900   0.914  0.9110 -0.2505 -0.4087
  396SOL    HW2 2639   6.544   6.038   0.852 -0.6005 -0.5080 -0.6769
  397SOL     OW 2640   0.205   4.657   5.216  0.2307 -0.3120  0.3442
  397SOL    HW1 2641   0.139   4.716   5.179 -1.2116 -1.3733  1.1269
  397SOL    HW2 2642   0.210   4.585   5.153  1.5733  0.3220 -0.3229
  398SOL     OW 2643   3.463   0.098   5.002 -0.8135 -0.3370  0.1028
  398SOL    HW1 2644   3.426   0.155   4.935 -0.3708  0.3961  0.4734
  398SOL    HW2 2645   3.444   0.009   4.971 -0.3279 -0.0257 -1.1685
  399SOL     OW 2646   4.190   2.831   6.295  0.1687 -0.0097 -0.3753
  399SOL    HW1 2647   4.259   2.825   6.361 -0.2621 -0.5451  0.0359
  399SOL    HW2 2648   4.229   2.881   6.224  1.3250 -1.1441 -0.5719
  400SOL     OW 2649   0.521   4.079   3.303 -0.2842 -0.2244  0.3315
  400SOL    HW1 2650   0.553   4.030   3.227 -0.5339 -0.0333  0.1012
  400SOL    HW2 2651   0.465   4.148   3.266  0.1022  0.2677  0.6488
  401SOL     OW 2652   4.796   1.744   3.339 -0.0311  0.5344  0.0378
  401SOL    HW1 2653   4.761   1.677   3.397 -0.0126  1.2210  0.8563
  401SOL    HW2 2654   4.859   1.792   3.392  0.3574  0.8609 -0.6991
  402SOL     OW 2655   2.040   4.939   0.006 -0.3666  0.2233 -0.2652
  402SOL    HW1 2656   1.986   5.018   0.008 -0.3307  0.2588 -0.6011
  402SOL    HW2 2657   2.026   4.898   0.091  1.7623  1.9962  1.0198
  403SOL     OW 2658   5.845   6.763   3.980  0.1900 -0.4202 -0.3703
  403SOL    HW1 2659   5.787   6.834   3.952 -1.6433 -2.1445 -1.1791
  403SOL    HW2 2660   5.854   6.706   3.903  2.1868 -0.7630  0.0394
  404SOL     OW 2661   2.707   3.213   4.044 -0.1260  0.2029  0.6147
  404SOL    HW1 2662   2.712   3.192   4.137  1.3549  1.0852  0.7594
  404SOL    HW2 2663   2.781   3.167   4.004 -0.6547 -0.0455 -0.1055
  405SOL     OW 2664   5.989   2.998   6.897 -0.1053  0.0272  0.1758
  405SOL    HW1 2665   5.990   3.050   6.977  0.7520 -0.7613  0.6829
  405SOL    HW2 2666   6.080   2.993   6.869  0.4457 -4.0398  2.0322
  406SOL     OW 2667   2.873   3.357   5.931 -0.1100  0.1026  0.0036
  406SOL    HW1 2668   2.960   3.396   5.938 -0.5715  1.1492 -0.0046
  406SOL    HW2 2669   2.871   3.290   6.000  0.7300  0.0010 -0.0674
  407SOL     OW 2670   0.025   1.149   5.603  0.0539 -0.1450  0.2895
  407SOL    HW1 2671   0.118   1.151   5.582  0.7443 -2.6629  2.5042
  407SOL    HW2 2672  -0.016   1.110   5.526  0.9054  0.3659 -0.4468
  408SOL     OW 2673   3.424   6.804   0.374  0.3301  0.2744 -0.1534
  408SOL    HW1 2674   3.382   6.796   0.460 -0.1555  1.5183 -0.2557
  408SOL    HW2 2675   3.509   6.846   0.393  0.2242  0.5455 -0.2701
  409SOL     OW 2676   6.561   1.731   0.019 -0.4564 -0.1957 -0.1998
  409SOL    HW1 2677   6.519   1.718  -0.066 -1.0687  0.8830 -0.0679
  409SOL    HW2 2678   6.647   1.768  -0.003 -1.2131  1.5801 -0.3113
  410SOL     OW 2679   1.062   5.220   1.938 -0.1620  0.0620 -0.3708
  410SOL    HW1 2680   1.082   5.312   1.958  1.0085 -0.0911 -0.7893
  410SOL    HW2 2681   0.974   5.207   1.974  0.3801  0.8283  1.3584
  411SOL     OW 2682   6.591   6.105   3.216 -0.4886  0.4494  0.0468
  411SOL    HW1 2683   6.631   6.168   3.275  1.4730 -1.4054  0.8322
  411SOL    HW2 2684   6.624   6.128   3.129  1.8135 -0.5754  0.5790
  412SOL     OW 2685   0.478   3.475   0.065 -0.0298 -0.5387  0.3861
  412SOL    HW1 2686   0.488   3.420   0.142 -0.4803 -1.0445  0.0925
  412SOL    HW2 2687   0.558   3.526   0.061 -0.7209  0.8098  2.2219
  413SOL     OW 2688   1.769   4.429   3.404  0.0681  0.2065 -0.0059
  413SOL    HW1 2689   1.822   4.349   3.408 -1.0879 -0.5548  0.7529
  413SOL    HW2 2690   1.729   4.426   3.317 -0.0390 -0.0806  0.0530
  414SOL     OW 2691   0.317   4.169   4.468 -0.1808 -0.5342  0.0174
  414SOL    HW1 2692   0.398   4.119   4.467  0.6169  0.7081 -0.1299
  414SOL    HW2 2693   0.296   4.179   4.561 -0.3997 -1.2074  0.0441
  415SOL     OW 2694   2.011   4.593   6.093 -0.2929 -0.3672 -0.1778
  415SOL    HW1 2695   1.921   4.570   6.072 -0.9335  0.5750  1.3593
  415SOL    HW2 2696   2.062   4.559   6.020 -2.0154  0.0376 -1.6415
  416SOL     OW 2697   3.567   4.651   2.514 -0.1000  0.6454 -0.3103
  416SOL    HW1 2698   3.589   4.645   2.607  0.3335 -0.8134 -0.4706
  416SOL    HW2 2699   3.473   4.634   2.510 -0.4398  2.3251 -0.0194
  417SOL     OW 2700   0.182   5.606   5.108  0.0099 -0.8982 -0.2545
  417SOL    HW1 2701   0.175   5.659   5.029 -0.4141 -0.2597  0.2042
  417SOL    HW2 2702   0.094   5.572   5.123  0.1130 -1.1111 -0.1121
  418SOL     OW 2703   5.542   1.791   5.938  0.3982  0.0116 -0.2154
  418SOL    HW1 2704   5.499   1.742   6.008  0.7354  1.1327  0.8022
  418SOL    HW2 2705   5.471   1.819   5.881 -0.1785  1.2898  1.0933
  419SOL     OW 2706   0.782   1.585   4.497 -0.2109 -0.3421  0.5953
  419SOL    HW1 2707   0.702   1.613   4.541 -0.3905 -0.3739  0.2989
  419SOL    HW2 2708   0.837   1.548   4.566  1.1234  3.0004  1.4855
  420SOL     OW 2709   2.632   3.270   2.233  0.3305  0.3459  0.3241
  420SOL    HW1 2710   2.595   3.314   2.156  0.4794  0.5817  0.3887
  420SOL    HW2 2711   2.717   3.238   2.204  0.6639  0.9850  0.5708
  421SOL     OW 2712   5.626   4.593   2.196  0.0854 -0.0122 -0.0583
  421SOL    HW1 2713   5.543   4.557   2.163  0.0736  0.5022 -0.6209
  421SOL    HW2 2714   5.609   4.614   2.288  0.2574 -1.9098  0.4415
  422SOL     OW 2715   7.014   1.115   3.159 -0.2310  0.0159  0.3748
  422SOL    HW1 2716   7.080   1.057   3.121  0.4124 -0.5260  2.2138
  422SOL    HW2 2717   7.064   1.189   3.194 -0.7299  0.2530  0.6081
  423SOL     OW 2718   4.032   3.325   2.290 -0.3016  0.1147  0.2697
  423SOL    HW1 2719   4.068   3.357   2.208 -1.2233  3.4198  1.0307
  423SOL    HW2 2720   3.938   3.312   2.272 -0.2806 -0.3993  0.4918
  424SOL     OW 2721   6.362   1.186   0.832 -0.3211  0.3932  0.0949
  424SOL    HW1 2722   6.424   1.259   0.831 -0.4464  0.5067 -0.7877
  424SOL    HW2 2723   6.277   1.227   0.818 -0.4728  0.1446  0.2898
  425SOL     OW 2724   2.465   6.642   1.529  0.0178  0.5915  0.6090
  425SOL    HW1 2725   2.548   6.662   1.485 -0.0025  1.5883  0.9953
  425SOL    HW2 2726   2.438   6.558   1.492 -0.3969  1.7172 -1.8794
  426SOL     OW 2727   1.058   2.353   6.257  0.7363 -0.0131  0.1492
  426SOL    HW1 2728   1.069   2.445   6.230 -0.7121  0.2726  0.4461
  426SOL    HW2 2729   1.016   2.359   6.343 -2.5214 -0.9249 -1.2540
  427SOL     OW 2730   1.796   0.248   4.481 -0.2818  0.2073 -0.0656
  427SOL    HW1 2731   1.729   0.181   4.497  0.5351 -0.5417  0.3533
  427SOL    HW2 2732   1.777   0.281   4.393 -0.8325 -0.4428 -0.1985
  428SOL     OW 2733   3.267   3.760   6.962 -0.2560 -0.1884 -0.3270
  428SOL    HW1 2734   3.293   3.687   7.019  0.7429  0.1686 -0.3011
  428SOL    HW2 2735   3.313   3.836   6.998 -0.8082  0.3381 -0.7155
  429SOL     OW 2736   4.354   3.088   3.226  0.2290 -0.4237  0.0232
  429SOL    HW1 2737   4.289   3.027   3.261 -0.8215  0.3580 -0.4872
  429SOL    HW2 2738   4.315   3.119   3.144  0.2494  1.6839  0.7524
  430SOL     OW 2739   0.454   5.117   5.649  0.0010 -0.3656  0.0743
  430SOL    HW1 2740   0.498   5.165   5.719 -0.8811  2.5266 -1.1959
  430SOL    HW2 2741   0.407   5.047   5.694  1.7566 -0.4286  1.9897
  431SOL     OW 2742   5.303   4.382   0.109  0.4877 -0.6622 -0.1536
  431SOL    HW1 2743   5.220   4.430   0.104  0.8323 -0.1546 -2.5010
  431SOL    HW2 2744   5.277   4.290   0.112 -0.1579 -0.4536  1.1168
  432SOL     OW 2745   2.017   5.878   0.948 -0.4591  0.4100 -0.0817
  432SOL    HW1 2746   1.997   5.961   0.905 -4.5413 -0.1491  0.3288
  432SOL    HW2 2747   1.958   5.874   1.023 -1.1429 -3.2296 -0.6051
  433SOL     OW 2748   4.958   3.448   0.017  0.4435  0.8050  0.1323
  433SOL    HW1 2749   5.042   3.472   0.055 -0.0066  1.0796  0.9817
  433SOL    HW2 2750   4.951   3.503  -0.061  0.0224  2.5194  1.3316
  434SOL     OW 2751   0.388   4.902   1.748  0.1224 -0.3161  0.1056
  434SOL    HW1 2752   0.434   4.986   1.754  1.0318 -0.8097  0.0528
  434SOL    HW2 2753   0.296   4.925   1.761  0.3667  0.6870  0.1396
  435SOL     OW 2754   5.775   0.564   6.687  0.6287  0.1418 -0.3950
  435SOL    HW1 2755   5.853   0.509   6.701  0.8211  0.5058 -0.0148
  435SOL    HW2 2756   5.731   0.564   6.771 -0.2351 -0.7345 -0.8274
  436SOL     OW 2757   4.928   4.588   2.342  0.3440 -0.6132  0.2965
  436SOL    HW1 2758   5.024   4.587   2.347  0.3324 -2.7074  1.4754
  436SOL    HW2 2759   4.906   4.524   2.274 -0.1946 -2.0015  1.7050
  437SOL     OW 2760   3.483   3.759   0.178  0.5574  0.2770  0.3883
  437SOL    HW1 2761   3.528   3.842   0.161  1.2244 -0.4914 -1.8356
  437SOL    HW2 2762   3.543   3.710   0.234  1.5003  0.1398 -0.7247
  438SOL     OW 2763   2.408   1.091   0.217  0.0696  0.6684 -0.2637
  438SOL    HW1 2764   2.502   1.091   0.199  0.1421 -1.1137 -0.0456
  438SOL    HW2 2765   2.368   1.106   0.131  0.5344  0.5719 -0.5043
  439SOL     OW 2766   2.320   5.938   0.220  0.1897  0.5952 -0.2764
  439SOL    HW1 2767   2.251   5.925   0.155 -0.7621  0.0927  0.8055
  439SOL    HW2 2768   2.362   5.852   0.228 -0.6930  0.2360  0.8418
  440SOL     OW 2769   1.527   4.429   2.811 -0.3575 -0.0903  0.3775
  440SOL    HW1 2770   1.549   4.342   2.778  0.8418 -0.2445  1.4863
  440SOL    HW2 2771   1.600   4.452   2.869 -0.9666  1.3826  0.6164
  441SOL     OW 2772   2.675   4.092   3.901  0.1285  0.6770  0.5574
  441SOL    HW1 2773   2.599   4.087   3.959 -1.1684  0.7625 -1.0713
  441SOL    HW2 2774   2.663   4.173   3.852 -0.0995 -0.5230 -1.4940
  442SOL     OW 2775   7.039   4.831   0.005  0.4402 -0.4802  0.1882
  442SOL    HW1 2776   7.097   4.845   0.080 -1.8262  1.9970  1.6611
  442SOL    HW2 2777   6.980   4.906   0.006 -1.8655 -2.0851 -2.0769
  443SOL     OW 2778   2.140   5.559   5.703 -0.3826 -0.0769  0.1385
  443SOL    HW1 2779   2.163   5.482   5.650  1.2440  1.4195 -1.4325
  443SOL    HW2 2780   2.046   5.569   5.690 -0.3359 -0.8648 -0.9542
  444SOL     OW 2781   3.659   4.337   6.770  0.3629  0.1683 -0.6774
  444SOL    HW1 2782   3.608   4.402   6.721 -0.3931 -0.8061 -1.2386
  444SOL    HW2 2783   3.725   4.388   6.817 -0.6376  1.4010 -0.5549
  445SOL     OW 2784   1.273   0.428   4.047 -0.1171  0.1190 -0.1137
  445SOL    HW1 2785   1.295   0.484   4.122 -0.6241  1.1765 -0.7267
  445SOL    HW2 2786   1.178   0.420   4.050 -0.0511 -0.6944 -0.0553
  446SOL     OW 2787   5.996   0.234   3.220  0.3691  0.1566  0.0352
  446SOL    HW1 2788   5.986   0.320   3.260 -0.8660 -0.0023  0.1220
  446SOL    HW2 2789   5.913   0.190   3.238  1.1668 -1.2541  0.4519
  447SOL     OW 2790   4.855   1.064   6.134 -0.1107  0.5770  1.0330
  447SOL    HW1 2791   4.768   1.053   6.095 -0.9228  3.3217  1.7829
  447SOL    HW2 2792   4.837   1.080   6.227  1.1621  1.3105  1.1761
  448SOL     OW 2793   2.170   1.651   0.115  0.3925  0.0994 -0.2176
  448SOL    HW1 2794   2.203   1.713   0.179  0.3299 -1.4857  1.4334
  448SOL    HW2 2795   2.088   1.690   0.084 -0.4395  0.2087  1.9113
  449SOL     OW 2796   4.984   5.201   0.038 -0.4684  0.1854 -0.7367
  449SOL    HW1 2797   4.990   5.249   0.121  0.3003 -0.6621 -0.2801
  449SOL    HW2 2798   4.918   5.133   0.054 -0.9664  0.5807 -1.1115
  450SOL     OW 2799   2.526   5.812   3.742  0.3625  0.0953  0.2221
  450SOL    HW1 2800   2.514   5.875   3.671 -0.5375 -1.4924 -1.1137
  450SOL    HW2 2801   2.619   5.818   3.765  0.8037  0.2596 -1.4920
  451SOL     OW 2802   1.583   0.012   0.398 -0.3062  0.8411 -0.3847
  451SOL    HW1 2803   1.635   0.091   0.413 -1.1294  1.4765 -0.7392
  451SOL    HW2 2804   1.499   0.045   0.366 -0.5748 -0.1997 -0.8022
  452SOL     OW 2805   2.197   0.071   3.227 -0.3812 -0.0571  0.0065
  452SOL    HW1 2806   2.244   0.020   3.162 -0.6174 -0.5499  0.2197
  452SOL    HW2 2807   2.105   0.044   3.217 -0.7253  1.2680 -0.7702
  453SOL     OW 2808   3.317   4.953   5.511  0.2435  0.0703  0.3847
  453SOL    HW1 2809   3.331   4.872   5.559  0.9127  0.5661  1.0646
  453SOL    HW2 2810   3.240   4.937   5.457 -0.3438 -0.6158  1.3966
  454SOL     OW 2811   4.764   6.705   1.456  0.3921  0.2130 -0.4290
  454SOL    HW1 2812   4.843   6.688   1.404  0.5875 -1.1938  0.2682
  454SOL    HW2 2813   4.720   6.620   1.460 -1.5961  1.1305 -1.4700
  455SOL     OW 2814   3.346   3.590   3.679 -0.4465 -0.0638 -0.9523
  455SOL    HW1 2815   3.442   3.589   3.675 -0.3858 -0.1409  0.1186
  455SOL    HW2 2816   3.322   3.502   3.707 -0.7267  0.3527  0.1962
  456SOL     OW 2817   6.782   0.033   3.291 -0.3196  0.0244 -0.0706
  456SOL    HW1 2818   6.705   0.054   3.239 -0.5382  0.5523  0.4589
  456SOL    HW2 2819   6.748   0.016   3.378 -0.0027 -1.2824 -0.1819
  457SOL     OW 2820   6.735   6.437   5.256 -0.4524 -0.0537 -0.2474
  457SOL    HW1 2821   6.674   6.374   5.295 -1.3588  1.6865  1.2540
  457SOL    HW2 2822   6.818   6.389   5.252 -0.5982 -0.7930  2.7448
  458SOL     OW 2823   6.738   0.899   1.977  0.0171 -0.1505  0.5966
  458SOL    HW1 2824   6.713   0.854   1.896  1.5300  1.6329 -0.9590
  458SOL    HW2 2825   6.658   0.897   2.030 -0.9356 -1.6705 -0.7566
  459SOL     OW 2826   5.229   1.098   6.315  0.5542  0.2244 -0.0389
  459SOL    HW1 2827   5.287   1.037   6.268  2.0894  1.4418  0.1915
  459SOL    HW2 2828   5.158   1.043   6.349  1.0129 -1.1581 -1.2113
  460SOL     OW 2829   2.630   2.606   0.143 -0.0300 -0.0224 -0.3451
  460SOL    HW1 2830   2.721   2.633   0.142  0.4113 -1.1816  1.6997
  460SOL    HW2 2831   2.583   2.679   0.184  0.0782  0.2870 -0.7667
  461SOL     OW 2832   4.260   0.475   6.453 -0.2279  0.6813  0.1098
  461SOL    HW1 2833   4.193   0.534   6.488 -0.3455  0.6213 -0.0148
  461SOL    HW2 2834   4.246   0.477   6.358 -1.2094 -0.7200  0.1950
  462SOL     OW 2835   6.779   4.852   5.911 -0.2022  0.0173  0.0874
  462SOL    HW1 2836   6.702   4.881   5.861 -0.4228 -1.5809 -0.5789
  462SOL    HW2 2837   6.800   4.926   5.968  0.0953  1.9859 -2.3818
  463SOL     OW 2838   4.335   5.043   6.333 -0.0226  0.4341 -0.1593
  463SOL    HW1 2839   4.385   5.125   6.329  1.0636 -0.2364 -1.9086
  463SOL    HW2 2840   4.359   4.997   6.252 -2.1017 -0.7628 -0.1626
  464SOL     OW 2841   3.255   0.194   2.618  0.3126 -0.0897  0.2265
  464SOL    HW1 2842   3.252   0.284   2.650  0.3040  0.1788 -0.5029
  464SOL    HW2 2843   3.188   0.148   2.669  1.9492 -0.2829  2.3194
  465SOL     OW 2844   5.782   1.603   5.875  0.2034  0.5328  0.2510
  465SOL    HW1 2845   5.719   1.636   5.940  0.7935  1.2664  0.4660
  465SOL    HW2 2846   5.745   1.628   5.791  0.6522  1.7954  0.4140
  466SOL     OW 2847   1.197   2.367   0.509 -0.2146 -0.3766 -0.4182
  466SOL    HW1 2848   1.177   2.296   0.569  1.8358 -1.0365 -0.4576
  466SOL    HW2 2849   1.115   2.381   0.460 -1.9208  0.1323  2.3887
  467SOL     OW 2850   2.198   3.257   1.385 -0.1283  0.1164  0.5338
  467SOL    HW1 2851   2.125   3.196   1.389 -1.7838  1.7946 -1.3857
  467SOL    HW2 2852   2.178   3.322   1.452 -0.1005  0.2653  0.3992
  468SOL     OW 2853   2.871   1.806   2.879 -0.2910 -0.5154 -0.0288
  468SOL    HW1 2854   2.791   1.831   2.833  1.0538  1.3380 -1.5176
  468SOL    HW2 2855   2.855   1.830   2.970 -1.0925  0.7288 -0.4723
  469SOL     OW 2856   1.511   2.603   6.505  0.1264 -0.0687 -0.2333
  469SOL    HW1 2857   1.554   2.651   6.576 -0.0718  0.3130 -0.3643
  469SOL    HW2 2858   1.567   2.527   6.490 -0.1706 -0.5108  0.7725
  470SOL     OW 2859   0.508   1.575   0.426  0.0775  0.5445  0.0699
  470SOL    HW1 2860   0.487   1.500   0.481  1.3527  1.2118  1.5206
  470SOL    HW2 2861   0.433   1.633   0.435  0.5696  0.9722  1.7380
  471SOL     OW 2862   3.767   4.531   2.344  0.6182 -0.2010 -1.1184
  471SOL    HW1 2863   3.678   4.527   2.379  1.6655 -1.6048  1.7191
  471SOL    HW2 2864   3.793   4.439   2.336  2.5153  0.1628  0.2345
  472SOL     OW 2865   1.231   0.181   6.327  0.0721  0.6946  0.1740
  472SOL    HW1 2866   1.139   0.156   6.318  0.5930 -0.8875 -1.5236
  472SOL    HW2 2867   1.242   0.254   6.265 -0.1918  1.3941  0.9401
  473SOL     OW 2868   4.211   4.969   4.044  0.0987  0.6068  0.1322
  473SOL    HW1 2869   4.172   5.056   4.052 -0.7177  0.5678 -2.5452
  473SOL    HW2 2870   4.148   4.910   4.086 -1.4994  0.8703 -1.7534
  474SOL     OW 2871   5.661   6.719   0.309  0.1958 -0.0301 -0.3841
  474SOL    HW1 2872   5.569   6.716   0.337  0.4288 -0.8010  0.3394
  474SOL    HW2 2873   5.682   6.628   0.287  0.5991  0.2493 -1.1672
  475SOL     OW 2874   1.852   2.439   4.542  0.1576 -0.1287 -0.1728
  475SOL    HW1 2875   1.886   2.353   4.566 -0.4116 -0.1213  0.6942
  475SOL    HW2 2876   1.854   2.489   4.624  0.3016  0.6283 -0.6264
  476SOL     OW 2877   0.690   3.145   6.526 -0.2040 -0.2203  0.0263
  476SOL    HW1 2878   0.731   3.179   6.446 -0.0840  0.8557  0.5239
  476SOL    HW2 2879   0.610   3.103   6.496 -0.2809  0.3784 -0.6351
  477SOL     OW 2880   3.660   2.805   5.545 -0.2066  0.1154  0.0679
  477SOL    HW1 2881   3.653   2.709   5.546 -1.6882  0.1583 -1.2921
  477SOL    HW2 2882   3.573   2.835   5.520  1.0726  1.6260 -3.2948
  478SOL     OW 2883   0.220   3.937   3.132  0.7593  0.5324 -0.1011
  478SOL    HW1 2884   0.158   3.948   3.060  1.5111  1.2170 -0.6598
  478SOL    HW2 2885   0.257   3.850   3.119  0.6653  0.5309 -0.3637
  479SOL     OW 2886   5.099   3.666   3.275  0.4687 -0.0786 -0.0470
  479SOL    HW1 2887   5.077   3.759   3.266 -0.0962 -0.3294 -1.5426
  479SOL    HW2 2888   5.040   3.634   3.344  1.1881  0.8118  1.0088
  480SOL     OW 2889   6.929   1.314   0.805  0.5977  0.5894  0.0111
  480SOL    HW1 2890   7.016   1.277   0.787  0.6293 -1.0722  2.9405
  480SOL    HW2 2891   6.868   1.244   0.782  0.3927  0.0579  1.9971
  481SOL     OW 2892   3.880   0.873   1.766  0.4423 -0.4709  0.5770
  481SOL    HW1 2893   3.799   0.923   1.761  0.4156 -0.3392  1.8856
  481SOL    HW2 2894   3.890   0.834   1.679 -1.6446 -1.4458  0.7150
  482SOL     OW 2895   6.605   6.754   4.775  0.2082  0.7343 -0.3718
  482SOL    HW1 2896   6.613   6.843   4.740 -0.2945  0.5877 -0.8799
  482SOL    HW2 2897   6.682   6.708   4.741  0.6691  1.0697  0.2031
  483SOL     OW 2898   2.579   5.221   3.372  0.0538 -0.7594  0.8752
  483SOL    HW1 2899   2.605   5.149   3.314  1.0773  2.1669 -2.6543
  483SOL    HW2 2900   2.485   5.231   3.357  0.5060  0.7848 -1.5586
  484SOL     OW 2901   1.604   3.413   3.016 -0.3451 -0.3229 -0.3455
  484SOL    HW1 2902   1.608   3.490   3.073  0.5534 -0.5221 -0.1295
  484SOL    HW2 2903   1.695   3.389   3.002 -0.6236 -1.4752 -0.2488
  485SOL     OW 2904   0.592   2.171   5.156 -0.1576 -0.9583  0.0810
  485SOL    HW1 2905   0.549   2.132   5.232  0.0439  0.7969  1.1251
  485SOL    HW2 2906   0.545   2.253   5.141  0.5529 -0.7288 -0.9767
  486SOL     OW 2907   0.171   2.659   2.926 -0.1925 -0.0530  0.5903
  486SOL    HW1 2908   0.177   2.752   2.951 -0.4401 -0.2109  1.2710
  486SOL    HW2 2909   0.203   2.656   2.836  1.3244  0.4681  1.0720
  487SOL     OW 2910   2.506   3.901   5.279  0.4178 -0.1048  0.3978
  487SOL    HW1 2911   2.429   3.880   5.226  1.1366 -1.8855 -0.0218
  487SOL    HW2 2912   2.580   3.879   5.223  1.2155 -0.5146  1.5741
  488SOL     OW 2913   6.761   0.070   4.170  0.1732 -0.1435 -0.3501
  488SOL    HW1 2914   6.748  -0.006   4.226  1.3152 -0.1126 -0.0275
  488SOL    HW2 2915   6.767   0.144   4.230  1.1712 -0.0792 -0.5161
  489SOL     OW 2916   2.541   0.607   0.367 -0.0790  0.0255 -0.6014
  489SOL    HW1 2917   2.519   0.558   0.289  0.1319  0.5700 -1.0133
  489SOL    HW2 2918   2.580   0.688   0.334 -2.1788  1.3515 -0.0058
  490SOL     OW 2919   2.552   6.895   2.534 -0.1817  0.6978 -0.2343
  490SOL    HW1 2920   2.485   6.827   2.535 -0.2579  0.7673  0.6354
  490SOL    HW2 2921   2.531   6.950   2.459  0.1863 -0.5322 -1.2766
  491SOL     OW 2922   3.608   4.288   0.879 -0.1724  0.0122  0.3775
  491SOL    HW1 2923   3.623   4.300   0.972  0.3971  1.1824  0.1523
  491SOL    HW2 2924   3.613   4.376   0.842 -2.0235 -0.2136 -0.5348
  492SOL     OW 2925   1.984   6.117   6.662  0.5513  0.0906  0.9773
  492SOL    HW1 2926   1.937   6.080   6.587  1.4135 -2.0350  1.3997
  492SOL    HW2 2927   1.961   6.210   6.662 -4.5909 -0.9160  1.8996
  493SOL     OW 2928   4.679   2.786   0.560 -0.2799 -0.5204  0.1141
  493SOL    HW1 2929   4.757   2.804   0.613  1.4960  0.5627 -2.6200
  493SOL    HW2 2930   4.645   2.873   0.537  0.0959 -0.8372 -1.8732
  494SOL     OW 2931   6.315   2.851   1.484 -0.2289 -0.4377 -0.0526
  494SOL    HW1 2932   6.378   2.889   1.423 -1.3442  3.2842  0.8581
  494SOL    HW2 2933   6.265   2.789   1.432  1.6771 -0.6580 -1.7332
  495SOL     OW 2934   1.097   4.338   3.436  0.4117 -0.2255  0.5749
  495SOL    HW1 2935   1.162   4.274   3.464 -1.2608 -1.3017  2.2454
  495SOL    HW2 2936   1.133   4.374   3.355  1.1173 -3.8081 -0.9141
  496SOL     OW 2937   1.468   3.884   6.661  0.0472  0.6498  0.1487
  496SOL    HW1 2938   1.559   3.879   6.633  0.7533  3.2574  1.6310
  496SOL    HW2 2939   1.431   3.956   6.611 -1.6722 -1.1420 -1.3572
  497SOL     OW 2940   6.831   0.436   5.760 -0.3786  0.7996  0.3981
  497SOL    HW1 2941   6.799   0.518   5.798  1.7138  1.9112 -0.0916
  497SOL    HW2 2942   6.922   0.431   5.786 -0.1686 -0.8506 -0.4947
  498SOL     OW 2943   5.235   2.556   0.595 -0.2252  0.2023 -0.2820
  498SOL    HW1 2944   5.320   2.599   0.603  0.2215 -0.8883  1.4854
  498SOL    HW2 2945   5.256   2.463   0.583 -1.1756  0.2237 -2.6360
  499SOL     OW 2946   3.830   4.224   3.937 -0.5863 -0.0561 -0.1493
  499SOL    HW1 2947   3.816   4.145   3.883  0.9866 -0.5577  0.1228
  499SOL    HW2 2948   3.842   4.190   4.026 -0.9019  0.5944  0.1478
  500SOL     OW 2949   0.900   5.415   6.302  0.8473  0.2706  0.3009
  500SOL    HW1 2950   0.903   5.507   6.273  1.5424  0.2855  0.4107
  500SOL    HW2 2951   0.817   5.382   6.268  0.8384  0.7922 -0.1903
  501SOL     OW 2952   1.611   1.369   6.992 -0.0813 -0.3969  0.2171
  501SOL    HW1 2953   1.597   1.439   6.928 -0.3794 -1.2186 -0.6361
  501SOL    HW2 2954   1.559   1.395   7.068 -0.4154  0.1629 -0.1921
  502SOL     OW 2955   2.729   1.916   5.958 -0.4945  0.0770 -0.2637
  502SOL    HW1 2956   2.801   1.863   5.924 -0.8434 -1.2065  0.8760
  502SOL    HW2 2957   2.771   1.995   5.993  0.0991  0.3374 -1.5376
  503SOL     OW 2958   1.407   1.984   5.756  0.5068  0.2348  0.5587
  503SOL    HW1 2959   1.389   2.076   5.775  2.7535  0.6204  1.1367
  503SOL    HW2 2960   1.398   1.939   5.840 -0.9688 -0.1878  0.2076
  504SOL     OW 2961   0.230   4.550   6.421 -0.3716 -0.1924  0.3067
  504SOL    HW1 2962   0.240   4.642   6.445 -1.2992 -0.6608  2.7856
  504SOL    HW2 2963   0.291   4.503   6.478 -0.9717 -1.2115  0.1436
  505SOL     OW 2964   3.974   3.880   4.748 -0.0545  0.0787  0.0233
  505SOL    HW1 2965   4.000   3.857   4.838 -0.2593 -1.2253 -0.2271
  505SOL    HW2 2966   3.887   3.841   4.738  1.0304 -2.2161 -1.5861
  506SOL     OW 2967   0.085   3.535   6.513 -0.3466  0.1054  0.6138
  506SOL    HW1 2968   0.013   3.480   6.543  0.3200 -1.2422 -0.1736
  506SOL    HW2 2969   0.150   3.531   6.583  0.4648 -1.6153 -0.1879
  507SOL     OW 2970   4.969   4.114   3.530  0.6007  0.0172  0.3040
  507SOL    HW1 2971   4.943   4.187   3.587 -0.9490 -0.1900 -0.1136
  507SOL    HW2 2972   5.029   4.154   3.467 -0.6459  1.0905 -0.2637
  508SOL     OW 2973   1.839   1.337   6.837 -0.3452 -0.0307  0.1906
  508SOL    HW1 2974   1.824   1.428   6.809  3.1699  0.8779  0.8139
  508SOL    HW2 2975   1.756   1.310   6.877 -1.8055  2.5288 -0.8685
  509SOL     OW 2976   2.419   6.013   2.567 -0.2629  0.0114 -0.3215
  509SOL    HW1 2977   2.383   5.928   2.593 -1.3008 -0.2132 -2.2709
  509SOL    HW2 2978   2.452   5.999   2.479  0.1960  1.4623 -0.4059
  510SOL     OW 2979   3.872   3.489   6.523  0.0749  0.4269  0.5058
  510SOL    HW1 2980   3.830   3.575   6.512  0.6396  0.5883 -0.4567
  510SOL    HW2 2981   3.925   3.498   6.602  2.3336  1.8960 -1.0661
  511SOL     OW 2982   3.257   2.232   1.680  0.0861  0.3228 -0.0701
  511SOL    HW1 2983   3.188   2.293   1.653  0.3061  0.5092 -0.2169
  511SOL    HW2 2984   3.304   2.211   1.600  1.6718  2.0385  0.3438
  512SOL     OW 2985   6.617   3.577   4.183  0.2086 -0.5848  0.5637
  512SOL    HW1 2986   6.688   3.640   4.188  1.8967 -2.4424  1.3966
  512SOL    HW2 2987   6.620   3.531   4.267 -0.7711 -1.9515 -0.1188
  513SOL     OW 2988   2.643   0.008   5.151  0.5472 -0.0771  0.1928
  513SOL    HW1 2989   2.709  -0.048   5.110 -1.1103 -1.1709 -1.1494
  513SOL    HW2 2990   2.607   0.059   5.079 -3.0223 -2.6344 -0.0953
  514SOL     OW 2991   1.041   4.450   6.680  0.2461  0.1208  0.4623
  514SOL    HW1 2992   0.994   4.465   6.598  0.7204 -0.7118  0.0286
  514SOL    HW2 2993   1.133   4.450   6.656  0.4657  1.0972  1.2072
  515SOL     OW 2994   3.147   5.058   5.786 -0.0789  0.7187 -0.4891
  515SOL    HW1 2995   3.242   5.061   5.776 -0.1217  1.3730 -0.7668
  515SOL    HW2 2996   3.115   5.130   5.732 -0.5836  2.1775  1.6441
  516SOL     OW 2997   2.764   1.972   0.838  0.0775 -0.2323  0.3158
  516SOL    HW1 2998   2.781   2.065   0.853 -0.3084  0.4118 -2.6160
  516SOL    HW2 2999   2.669   1.968   0.822  0.3543 -0.8143 -1.3116
  517SOL     OW 3000   4.691   6.157   1.705 -0.4568  0.2598 -0.5956
  517SOL    HW1 3001   4.687   6.108   1.788  0.4352  2.4606  0.8329
  517SOL    HW2 3002   4.714   6.090   1.640  1.1229 -1.2021  1.3054
  518SOL     OW 3003   3.554   4.722   3.946 -0.0370  0.6521  0.4549
  518SOL    HW1 3004   3.601   4.663   4.004 -0.7665 -2.3781 -1.8037
  518SOL    HW2 3005   3.462   4.698   3.956 -0.4426  1.8806 -0.0695
  519SOL     OW 3006   1.844   2.467   5.069  0.4863  0.2321  0.8255
  519SOL    HW1 3007   1.790   2.435   4.997  1.5075  1.2573 -0.4478
  519SOL    HW2 3008   1.849   2.394   5.130 -0.3687 -0.6864 -0.1758
  520SOL     OW 3009   1.171   3.436   4.003 -0.0516  0.0929  0.2064
  520SOL    HW1 3010   1.214   3.442   4.088 -0.0547  1.9285  0.1194
  520SOL    HW2 3011   1.136   3.523   3.987 -0.3559 -0.2965 -1.5272
  521SOL     OW 3012   3.972   5.393   4.183  0.0784  0.1819  1.0115
  521SOL    HW1 3013   3.921   5.455   4.235  0.8178  1.0156  0.7642
  521SOL    HW2 3014   3.918   5.313   4.182 -0.1602  0.2887  2.6399
  522SOL     OW 3015   5.676   1.561   6.846 -0.0981 -0.3500 -0.1712
  522SOL    HW1 3016   5.623   1.603   6.913  0.3823 -0.8589  0.5419
  522SOL    HW2 3017   5.742   1.511   6.895  1.6537  1.0097 -1.0219
  523SOL     OW 3018   1.501   0.809   1.690 -0.0259 -0.3017  0.0446
  523SOL    HW1 3019   1.435   0.745   1.717 -0.8020  1.0283  1.5070
  523SOL    HW2 3020   1.491   0.880   1.753  0.5927  1.3988 -1.6854
  524SOL     OW 3021   6.533   4.250   2.264  0.0677 -0.3520 -0.1294
  524SOL    HW1 3022   6.439   4.268   2.264  0.4350  1.9811 -1.4029
  524SOL    HW2 3023   6.570   4.321   2.211  2.6274 -0.8119  0.9388
  525SOL     OW 3024   2.874   2.866   1.533  0.0546  0.1099  0.7770
  525SOL    HW1 3025   2.894   2.878   1.440  2.0758 -1.4854  0.9452
  525SOL    HW2 3026   2.856   2.955   1.565  0.8442  0.8814 -0.8071
  526SOL     OW 3027   5.313   5.795   3.596  0.0097  1.1265 -0.5902
  526SOL    HW1 3028   5.367   5.806   3.517 -0.1999  0.3570 -0.8525
  526SOL    HW2 3029   5.224   5.810   3.566 -0.1184  0.3461 -0.6110
  527SOL     OW 3030   0.106   4.456   4.495 -0.3299 -0.0773 -0.1327
  527SOL    HW1 3031   0.183   4.436   4.441 -1.0743 -1.0097 -0.8900
  527SOL    HW2 3032   0.136   4.439   4.585  0.2338 -0.8597 -0.4494
  528SOL     OW 3033   1.110   6.473   5.708 -0.4402 -0.3186 -0.0329
  528SOL    HW1 3034   1.118   6.413   5.782  2.7457  1.4297  1.2062
  528SOL    HW2 3035   1.154   6.428   5.636 -2.5717 -1.5358 -0.6838
  529SOL     OW 3036   1.757   5.145   5.008 -0.1865  0.7660  0.5671
  529SOL    HW1 3037   1.666   5.173   5.017 -0.8984 -1.1097 -0.1640
  529SOL    HW2 3038   1.751   5.051   4.989  1.9444  0.4226  1.3242
  530SOL     OW 3039   6.214   1.325   6.832 -0.4267 -0.8779 -0.6745
  530SOL    HW1 3040   6.191   1.279   6.752 -0.9211  0.7258 -1.5042
  530SOL    HW2 3041   6.305   1.352   6.819 -0.6849 -0.1106 -0.9823
  531SOL     OW 3042   4.601   6.268   6.393  0.5280  0.3533 -0.4659
  531SOL    HW1 3043   4.532   6.279   6.459  1.8943  0.5355  1.0010
  531SOL    HW2 3044   4.651   6.349   6.397 -0.2315  1.0367 -2.8905
  532SOL     OW 3045   0.434   4.514   1.361 -0.2157 -0.3153  0.7815
  532SOL    HW1 3046   0.405   4.443   1.418 -0.7671 -0.2211  0.6205
  532SOL    HW2 3047   0.459   4.584   1.421  0.3348 -0.6403  0.9421
  533SOL     OW 3048   4.784   2.563   0.409  0.2891 -0.0791 -0.5081
  533SOL    HW1 3049   4.873   2.593   0.390  1.8351 -1.9726  2.8462
  533SOL    HW2 3050   4.742   2.638   0.452  1.1436  0.0612  0.1059
  534SOL     OW 3051   0.190   6.935   3.435 -0.0120  0.2200 -0.4842
  534SOL    HW1 3052   0.273   6.901   3.403 -0.6610 -0.2604 -1.7421
  534SOL    HW2 3053   0.182   6.899   3.524  1.9356  1.7686  0.3745
  535SOL     OW 3054   1.159   1.071   6.587  0.3837  0.3836 -0.0996
  535SOL    HW1 3055   1.198   0.984   6.597  1.0712  0.7693  0.6822
  535SOL    HW2 3056   1.084   1.070   6.645 -1.4215 -0.6753 -2.2765
  536SOL     OW 3057   2.842   1.114   5.398 -0.0376 -0.1508 -0.1668
  536SOL    HW1 3058   2.859   1.198   5.355 -0.2173 -1.1805 -2.3583
  536SOL    HW2 3059   2.754   1.090   5.370  0.3319 -1.4632 -0.2680
  537SOL     OW 3060   0.818   4.154   2.403 -0.0686  0.3653 -0.3478
  537SOL    HW1 3061   0.871   4.099   2.460  0.0616 -0.4080 -1.2115
  537SOL    HW2 3062   0.823   4.114   2.317 -1.0887  0.9480 -0.7082
  538SOL     OW 3063   2.635   2.837   6.127  0.2255 -0.1971  0.5015
  538SOL    HW1 3064   2.541   2.823   6.115  0.6291 -1.1925 -2.4873
  538SOL    HW2 3065   2.665   2.758   6.172 -0.5164  0.8447  2.9870
  539SOL     OW 3066   7.062   0.396   7.009 -0.0669 -0.0377 -0.2450
  539SOL    HW1 3067   7.102   0.310   6.997 -0.2167 -0.0216 -0.9032
  539SOL    HW2 3068   6.970   0.378   7.028  0.0426 -0.0405  0.3067
  540SOL     OW 3069   2.208   6.859   6.644 -0.7835 -0.7532  0.2810
  540SOL    HW1 3070   2.230   6.931   6.586 -1.1049  1.5133  2.7867
  540SOL    HW2 3071   2.289   6.839   6.690 -1.5193  0.7480  2.3555
  541SOL     OW 3072   6.351   5.842   4.778 -0.2235  0.0575 -0.2010
  541SOL    HW1 3073   6.413   5.808   4.714  0.8511  0.5781  0.5382
  541SOL    HW2 3074   6.346   5.935   4.761 -0.2126  0.1425  0.2316
  542SOL     OW 3075   3.503   6.398   2.045 -0.6493 -0.0377 -0.0605
  542SOL    HW1 3076   3.591   6.383   2.011 -0.7469 -0.3488 -0.1756
  542SOL    HW2 3077   3.476   6.482   2.006  0.7470  1.6437  2.2803
  543SOL     OW 3078   4.745   1.588   0.169  0.2925  0.0316 -0.1719
  543SOL    HW1 3079   4.659   1.574   0.208  0.6304 -1.3021  0.1597
  543SOL    HW2 3080   4.792   1.506   0.185  1.6790  0.7909 -0.2144
  544SOL     OW 3081   4.892   0.666   3.148 -0.3924  0.1875  0.1258
  544SOL    HW1 3082   4.888   0.633   3.058 -0.6064  0.9860 -0.1691
  544SOL    HW2 3083   4.824   0.618   3.195 -0.9046  0.4257 -0.3687
  545SOL     OW 3084   4.459   1.768   0.660 -0.1063  1.1768  0.5176
  545SOL    HW1 3085   4.457   1.824   0.738 -0.1780  1.0737  0.5904
  545SOL    HW2 3086   4.489   1.826   0.590 -1.5704  1.6792  0.2795
  546SOL     OW 3087   3.949   3.734   3.055 -0.8718  0.5531 -0.3120
  546SOL    HW1 3088   3.955   3.828   3.039 -0.6427  0.8970  1.5568
  546SOL    HW2 3089   3.861   3.721   3.091 -0.6358  0.1825  0.1438
  547SOL     OW 3090   6.025   4.948   6.720  0.0457  0.0808 -0.3441
  547SOL    HW1 3091   6.114   4.979   6.704 -0.3070  1.6691  0.5529
  547SOL    HW2 3092   5.969   5.019   6.689 -0.9922 -1.3786 -1.9832
  548SOL     OW 3093   3.634   2.990   0.501  0.4439  0.0368 -0.1958
  548SOL    HW1 3094   3.602   3.000   0.411  0.7439  0.3472 -0.2726
  548SOL    HW2 3095   3.640   3.080   0.534  3.3959  0.2255 -0.9600
  549SOL     OW 3096   4.499   6.546   0.179 -0.2660  0.2120 -0.3189
  549SOL    HW1 3097   4.578   6.571   0.225 -0.7642  0.5488  0.3709
  549SOL    HW2 3098   4.530   6.506   0.097  0.6363 -0.7189  0.4630
  550SOL     OW 3099   6.258   1.520   0.858  0.1233 -0.2305 -0.0061
  550SOL    HW1 3100   6.325   1.482   0.915  1.0106 -0.0719 -0.9156
  550SOL    HW2 3101   6.177   1.475   0.883  1.1201 -2.7769 -1.0438
  551SOL     OW 3102   0.128   4.710   4.400 -0.9865 -0.0721  0.1861
  551SOL    HW1 3103   0.098   4.623   4.426 -2.9724  0.2411 -0.8796
  551SOL    HW2 3104   0.144   4.704   4.306  0.4770  0.3106  0.3839
  552SOL     OW 3105   6.133   6.592   5.266  0.3903  0.1121 -0.3123
  552SOL    HW1 3106   6.042   6.586   5.237  0.4856  0.7418 -0.7543
  552SOL    HW2 3107   6.171   6.507   5.244 -0.4337 -0.6533  1.0975
  553SOL     OW 3108   6.464   0.967   3.923  0.1772  0.0425 -0.3194
  553SOL    HW1 3109   6.438   0.909   3.852  0.6686 -0.3035 -0.2200
  553SOL    HW2 3110   6.555   0.989   3.904 -0.0021  0.7686 -0.3466
  554SOL     OW 3111   3.109   0.019   5.401  0.3468  0.5360 -0.3990
  554SOL    HW1 3112   3.074   0.094   5.449 -1.6322 -0.7593  0.3303
  554SOL    HW2 3113   3.065   0.022   5.316  0.3415  0.2720 -0.4065
  555SOL     OW 3114   3.413   6.725   6.380 -0.1118 -0.0030 -0.3218
  555SOL    HW1 3115   3.508   6.733   6.372 -0.0150 -0.6210  0.1603
  555SOL    HW2 3116   3.400   6.639   6.420 -0.8323  0.4810  0.5040
  556SOL     OW 3117   2.381   3.399   4.305 -0.1080  0.1609 -0.7611
  556SOL    HW1 3118   2.368   3.316   4.352  2.3303 -0.4863 -1.1160
  556SOL    HW2 3119   2.380   3.375   4.213  0.5869  0.5155 -0.8683
  557SOL     OW 3120   1.808   7.004   4.705 -0.5046  0.3088  0.1149
  557SOL    HW1 3121   1.813   6.997   4.610 -0.4196 -3.7665  0.2545
  557SOL    HW2 3122   1.719   6.975   4.726  0.1365 -0.8435  1.3410
  558SOL     OW 3123   6.395   4.037   4.693  0.4338 -0.1427  0.3062
  558SOL    HW1 3124   6.396   4.031   4.598 -0.8825  1.5314  0.1273
  558SOL    HW2 3125   6.482   4.070   4.717  0.6979 -0.3693 -0.3365
  559SOL     OW 3126   4.992   2.128   1.573 -0.0161 -0.3518  0.5002
  559SOL    HW1 3127   4.994   2.159   1.664 -1.3012 -0.0680  0.4557
  559SOL    HW2 3128   4.966   2.205   1.523  0.2109 -0.6363 -0.0559
  560SOL     OW 3129   5.011   1.286   2.287  0.0114  0.0623 -0.7210
  560SOL    HW1 3130   4.988   1.240   2.368  0.0512 -0.4544 -0.9945
  560SOL    HW2 3131   5.103   1.264   2.273  0.8991  2.5055  0.6333
  561SOL     OW 3132   4.533   1.592   5.146  0.5422  0.1901 -0.1389
  561SOL    HW1 3133   4.619   1.633   5.141  0.9578 -0.1587  2.5540
  561SOL    HW2 3134   4.508   1.599   5.238 -1.6583 -1.0425 -0.5562
  562SOL     OW 3135   0.709   6.875   1.739  0.1910 -0.5821 -0.0941
  562SOL    HW1 3136   0.642   6.928   1.695 -0.8989 -0.5323  1.4931
  562SOL    HW2 3137   0.792   6.910   1.707 -0.5256  0.5238 -0.8454
  563SOL     OW 3138   6.850   2.680   4.746  0.0673 -0.5715  0.0390
  563SOL    HW1 3139   6.791   2.736   4.696  0.9046 -0.1418 -0.4991
  563SOL    HW2 3140   6.794   2.640   4.812 -0.6759  0.4127  0.0396
  564SOL     OW 3141   2.048   0.111   5.300 -0.8785 -0.4503  0.0655
  564SOL    HW1 3142   2.078   0.158   5.222  2.6200 -1.0909  0.8515
  564SOL    HW2 3143   1.984   0.048   5.266 -1.5431  1.1130 -1.8193
  565SOL     OW 3144   1.625   1.127   6.877  0.0889 -0.0724  0.6858
  565SOL    HW1 3145   1.618   1.191   6.948  0.0453 -1.7234  2.2347
  565SOL    HW2 3146   1.696   1.069   6.904  0.4298 -0.4488 -0.8998
  566SOL     OW 3147   1.631   6.007   2.424 -0.3419 -0.8725 -0.5513
  566SOL    HW1 3148   1.726   6.007   2.436 -0.5587 -0.3989  1.5495
  566SOL    HW2 3149   1.607   5.915   2.426 -0.0878 -0.9387  0.8616
  567SOL     OW 3150   1.062   3.770   5.640 -0.0136  0.2117  0.2542
  567SOL    HW1 3151   1.150   3.737   5.660  0.1980 -0.8562 -2.1431
  567SOL    HW2 3152   1.003   3.709   5.684  0.4277 -0.0435  0.5003
  568SOL     OW 3153   2.962   2.579   0.629 -0.1731  0.2309  0.2970
  568SOL    HW1 3154   2.918   2.541   0.553  1.0214  0.6492 -0.6407
  568SOL    HW2 3155   2.983   2.669   0.603  1.3376  0.0098  0.6209
  569SOL     OW 3156   4.280   3.338   1.089 -0.3393 -0.1322 -0.1676
  569SOL    HW1 3157   4.294   3.264   1.030 -0.8213 -0.2982 -0.0759
  569SOL    HW2 3158   4.193   3.323   1.126  0.3163 -0.5370  1.3025
  570SOL     OW 3159   2.894   7.104   4.770  0.2518 -0.5296 -0.2956
  570SOL    HW1 3160   2.806   7.079   4.742  0.3237 -0.6815 -0.3897
  570SOL    HW2 3161   2.914   7.182   4.718 -0.0823 -0.1026  0.2025
  571SOL     OW 3162   6.724   4.252   4.255  0.5671  0.9081  0.0724
  571SOL    HW1 3163   6.733   4.334   4.303 -1.1647  0.5441  1.0989
  571SOL    HW2 3164   6.729   4.184   4.322  0.1766  0.2748 -0.5202
  572SOL     OW 3165   6.804   4.291   3.758  0.2727 -0.1843 -0.2094
  572SOL    HW1 3166   6.760   4.270   3.841  1.7447  0.8824  0.9045
  572SOL    HW2 3167   6.837   4.207   3.728 -1.4684 -0.8184 -0.4838
  573SOL     OW 3168   4.321   4.786   0.768 -0.1694  0.0753 -0.3835
  573SOL    HW1 3169   4.300   4.879   0.774  0.4045  0.3358 -1.9715
  573SOL    HW2 3170   4.376   4.769   0.845 -0.2588  1.0449 -0.0891
  574SOL     OW 3171   4.386   5.435   0.338  0.2184  0.4216 -0.3386
  574SOL    HW1 3172   4.370   5.501   0.405  0.8529 -0.8164  1.0756
  574SOL    HW2 3173   4.300   5.395   0.323  0.2184  0.1646  0.3257
  575SOL     OW 3174   6.819   4.641   2.484  0.5029 -0.6804  0.3211
  575SOL    HW1 3175   6.746   4.667   2.429  0.8439  2.0335  0.9888
  575SOL    HW2 3176   6.896   4.647   2.427  0.5078 -0.9051  0.3031
  576SOL     OW 3177   1.349   0.602   5.660 -0.7034  0.9483 -0.8083
  576SOL    HW1 3178   1.351   0.507   5.653 -1.4392  0.7477  1.2269
  576SOL    HW2 3179   1.256   0.625   5.661 -0.6119  1.4291  1.1797
  577SOL     OW 3180   3.171   4.368   3.725  0.0334  0.5546  0.1687
  577SOL    HW1 3181   3.103   4.410   3.779 -2.7549  1.6462 -3.7747
  577SOL    HW2 3182   3.174   4.420   3.645  1.3742 -2.8522 -2.2147
  578SOL     OW 3183   2.012   0.122   6.967 -0.5329  0.0340  0.0380
  578SOL    HW1 3184   2.018   0.112   7.063  1.2754 -1.3727 -0.1641
  578SOL    HW2 3185   1.934   0.175   6.954 -1.2051 -0.2710  2.2773
  579SOL     OW 3186   1.131   3.155   1.778  0.3934 -0.1843  0.1640
  579SOL    HW1 3187   1.209   3.189   1.822 -0.4673  0.3526  1.3385
  579SOL    HW2 3188   1.164   3.118   1.696  1.8572  0.1410  0.5698
  580SOL     OW 3189   0.972   1.039   1.794 -0.3445 -0.1433  0.7272
  580SOL    HW1 3190   0.966   1.092   1.874  0.4890  0.0440  0.6771
  580SOL    HW2 3191   0.881   1.025   1.768 -0.5875  1.4099  0.6490
  581SOL     OW 3192   5.239   0.676   6.491 -0.3289  0.1095  0.5230
  581SOL    HW1 3193   5.334   0.670   6.500 -0.4563 -2.6953  0.8182
  581SOL    HW2 3194   5.223   0.670   6.397 -0.2338  0.1024  0.5076
  582SOL     OW 3195   5.234   0.461   6.677  0.2121  0.2005 -0.1358
  582SOL    HW1 3196   5.240   0.396   6.607 -0.3534 -0.6864  0.6095
  582SOL    HW2 3197   5.258   0.544   6.636  1.5079 -0.5693 -0.9763
  583SOL     OW 3198   4.567   4.861   3.094 -0.0865 -0.2759 -0.1197
  583SOL    HW1 3199   4.569   4.957   3.092  1.9666 -0.2794  0.0844
  583SOL    HW2 3200   4.474   4.840   3.097 -0.5697  1.7352  1.0373
  584SOL     OW 3201   7.127   1.803   3.934  0.0460  0.2299 -0.0439
  584SOL    HW1 3202   7.176   1.864   3.989 -0.2387  1.2310 -0.8582
  584SOL    HW2 3203   7.180   1.797   3.854 -0.7021  0.6428 -0.5851
  585SOL     OW 3204   3.788   2.246   5.489 -0.5360  0.3315  0.1197
  585SOL    HW1 3205   3.770   2.298   5.566 -1.0197  0.0442  0.2038
  585SOL    HW2 3206   3.735   2.167   5.500 -0.9629  0.4954 -0.7283
  586SOL     OW 3207   0.426   5.656   3.179  0.0051  0.2965  0.3632
  586SOL    HW1 3208   0.503   5.711   3.161 -1.3745  2.9418  1.9629
  586SOL    HW2 3209   0.355   5.719   3.195 -2.5156 -2.0349 -0.9546
  587SOL     OW 3210   6.664   0.901   2.744  0.0703  0.1476  0.4548
  587SOL    HW1 3211   6.742   0.846   2.749 -0.7345 -0.9293  2.1299
  587SOL    HW2 3212   6.650   0.932   2.834 -0.4326  1.7993 -0.1437
  588SOL     OW 3213   2.445   4.953   4.687  0.4619  0.2857  0.0279
  588SOL    HW1 3214   2.493   4.971   4.768  0.6201 -1.3328  0.3334
  588SOL    HW2 3215   2.462   5.029   4.631  0.1235  1.5732  1.6032
  589SOL     OW 3216   2.268   5.692   5.404 -1.1293  0.0910 -0.6606
  589SOL    HW1 3217   2.312   5.715   5.322 -0.3733  2.5416  0.3538
  589SOL    HW2 3218   2.338   5.658   5.459 -1.3579 -0.1404 -0.5101
  590SOL     OW 3219   0.992   0.417   4.489  0.8589 -0.1898  0.4352
  590SOL    HW1 3220   0.940   0.439   4.566  1.2914  1.3030  0.3204
  590SOL    HW2 3221   1.082   0.437   4.514  0.9139  1.1508 -0.7204
  591SOL     OW 3222   5.289   0.051   3.836 -0.2842  0.0917  0.1098
  591SOL    HW1 3223   5.285   0.138   3.875 -1.0853  0.4584 -0.7464
  591SOL    HW2 3224   5.197   0.027   3.823 -0.2232 -1.9877  2.6980
  592SOL     OW 3225   1.219   7.049   0.305 -0.3478  0.2930 -0.4056
  592SOL    HW1 3226   1.195   7.141   0.290 -1.1323 -0.0230 -1.1842
  592SOL    HW2 3227   1.135   7.004   0.314  0.0460 -0.2713  0.4781
  593SOL     OW 3228   2.737   2.105   4.585  0.0756  0.1579  0.4745
  593SOL    HW1 3229   2.781   2.117   4.501 -2.5460  1.4116 -0.8434
  593SOL    HW2 3230   2.718   2.011   4.588  1.7272 -0.2002  0.5387
  594SOL     OW 3231   5.784   1.319   5.496 -0.4399  0.7351  0.2495
  594SOL    HW1 3232   5.713   1.382   5.508  0.1945  1.3179  1.1547
  594SOL    HW2 3233   5.860   1.373   5.474  0.0158  0.2547  0.6200
  595SOL     OW 3234   2.776   2.619   4.482 -0.0345  0.3806  0.7475
  595SOL    HW1 3235   2.849   2.558   4.481  0.2871  0.7708  0.2153
  595SOL    HW2 3236   2.807   2.694   4.532 -0.1932  0.3918  0.8294
  596SOL     OW 3237   1.229   6.207   1.417  0.5424  0.0826 -0.2359
  596SOL    HW1 3238   1.186   6.139   1.469 -0.5662  1.1280  0.2592
  596SOL    HW2 3239   1.237   6.170   1.329 -2.7457  0.3580 -0.7471
  597SOL     OW 3240   1.130   4.171   6.779 -0.2644  0.2486 -0.2205
  597SOL    HW1 3241   1.089   4.255   6.797  0.1205  0.3912  0.0107
  597SOL    HW2 3242   1.150   4.174   6.686  0.3313  0.6833 -0.0872
  598SOL     OW 3243   1.133   2.366   5.608  0.0545 -0.3381 -0.7209
  598SOL    HW1 3244   1.057   2.391   5.557 -0.3114 -0.9975 -0.5004
  598SOL    HW2 3245   1.153   2.444   5.660 -0.2703 -0.0559 -1.0157
  599SOL     OW 3246   1.631   2.130   6.881 -0.6509  0.3480 -0.2832
  599SOL    HW1 3247   1.588   2.185   6.816  1.9305  1.1085 -1.4410
  599SOL    HW2 3248   1.655   2.051   6.834 -1.4393 -0.4379  0.5730
  600SOL     OW 3249   5.006   6.189   3.995 -0.2265 -0.0471  0.6784
  600SOL    HW1 3250   4.999   6.226   3.907  2.1642  0.2154  0.5276
  600SOL    HW2 3251   5.042   6.101   3.981 -0.8514 -0.4154  1.3422
  601SOL     OW 3252   2.177   6.652   1.452  0.1145  0.0604  0.8761
  601SOL    HW1 3253   2.085   6.670   1.473  0.0900  1.3104 -0.2020
  601SOL    HW2 3254   2.224   6.727   1.487  0.1841  1.7352 -2.4816
  602SOL     OW 3255   5.380   1.953   0.650 -0.4751  0.1203  0.3139
  602SOL    HW1 3256   5.415   2.041   0.663 -0.0970  0.2071 -1.0635
  602SOL    HW2 3257   5.294   1.967   0.611 -0.8804 -0.1194  1.1077
  603SOL     OW 3258   1.057   2.736   1.588 -0.3670  0.6517 -0.4841
  603SOL    HW1 3259   1.053   2.688   1.671 -2.8915 -0.1689 -1.0024
  603SOL    HW2 3260   1.151   2.737   1.566  0.3130  0.3921  2.0486
  604SOL     OW 3261   5.925   4.111   3.437  0.4869 -0.0555  0.0010
  604SOL    HW1 3262   5.894   4.041   3.496 -0.4435 -0.8636 -1.3971
  604SOL    HW2 3263   5.864   4.109   3.363  0.8497  1.8075 -0.4009
  605SOL     OW 3264   4.361   6.539   1.939  0.0560  0.1071 -0.0501
  605SOL    HW1 3265   4.337   6.604   2.006  0.2021  0.0563  0.0504
  605SOL    HW2 3266   4.374   6.591   1.859 -0.4782  0.1287 -0.1313
  606SOL     OW 3267   6.137   4.943   1.366 -0.0200 -1.1598  0.4421
  606SOL    HW1 3268   6.215   4.910   1.320  0.7380 -0.4027  1.1510
  606SOL    HW2 3269   6.165   4.955   1.456 -0.5320  0.4578  0.4245
  607SOL     OW 3270   3.922   5.929   5.601  0.4203 -0.1827 -0.3346
  607SOL    HW1 3271   3.836   5.939   5.560 -0.2642 -0.4094  0.9849
  607SOL    HW2 3272   3.974   6.000   5.564 -0.5432  0.4106 -0.6100
  608SOL     OW 3273   6.964   1.851   5.700  0.2257  0.5486 -0.3170
  608SOL    HW1 3274   6.903   1.847   5.627  1.2320 -0.8421 -1.1213
  608SOL    HW2 3275   7.047   1.819   5.664  1.0062  0.8121  1.1729
  609SOL     OW 3276   3.168   3.339   3.138  0.5293 -0.6762  0.1691
  609SOL    HW1 3277   3.245   3.283   3.151  0.0100 -1.2588  0.7603
  609SOL    HW2 3278   3.161   3.348   3.043  2.6084  1.1783  0.1057
  610SOL     OW 3279   2.392   0.609   5.899 -0.6274 -0.3873  0.1015
  610SOL    HW1 3280   2.334   0.601   5.975 -1.5308 -2.0069 -0.7168
  610SOL    HW2 3281   2.338   0.582   5.825 -0.0648  2.0302 -1.2963
  611SOL     OW 3282   5.769   4.977   0.558  0.3503  0.2987 -0.4421
  611SOL    HW1 3283   5.758   4.960   0.465  1.1614 -1.6786 -0.2326
  611SOL    HW2 3284   5.689   5.021   0.585 -0.9906 -1.3342 -1.5874
  612SOL     OW 3285   2.756   4.601   2.010  0.0301  0.4369  0.1065
  612SOL    HW1 3286   2.677   4.615   2.062 -0.4392 -0.1552 -0.4372
  612SOL    HW2 3287   2.751   4.509   1.982  1.3237  0.1429  0.7469
  613SOL     OW 3288   1.661   6.375   6.738  0.4714  0.1448  0.1337
  613SOL    HW1 3289   1.745   6.350   6.699  0.6426  0.3066  0.3917
  613SOL    HW2 3290   1.602   6.384   6.664  0.4587 -0.8215  0.0231
  614SOL     OW 3291   3.149   5.561   2.825 -0.4735  0.3175 -0.1580
  614SOL    HW1 3292   3.076   5.610   2.786 -0.4694  1.4255  1.1236
  614SOL    HW2 3293   3.107   5.507   2.893 -0.0972  1.1132  0.7214
  615SOL     OW 3294   4.290   6.852   5.906  0.3859  0.0480 -0.1384
  615SOL    HW1 3295   4.348   6.917   5.946  0.2509 -0.2313  0.5245
  615SOL    HW2 3296   4.206   6.897   5.896  0.5118  0.2238 -0.4313
  616SOL     OW 3297   1.588   0.926   2.649 -0.3154 -0.2937 -0.1675
  616SOL    HW1 3298   1.629   0.854   2.600  1.8171  1.4201 -1.0851
  616SOL    HW2 3299   1.537   0.974   2.583  0.2376  0.3812 -0.1191
  617SOL     OW 3300   4.817   2.338   5.515  0.5500  0.1446 -0.0755
  617SOL    HW1 3301   4.870   2.264   5.485  1.6770  0.4779  1.0158
  617SOL    HW2 3302   4.818   2.400   5.442  0.9927 -0.1981 -0.3629
  618SOL     OW 3303   2.924   1.011   4.605 -0.1401  0.6100  0.1109
  618SOL    HW1 3304   2.928   0.916   4.610 -1.2577  0.2101 -3.7328
  618SOL    HW2 3305   2.855   1.035   4.667  0.5923 -0.9393  1.6104
  619SOL     OW 3306   5.775   5.903   3.721  0.0202  0.2731  0.6077
  619SOL    HW1 3307   5.687   5.939   3.734  0.0450  0.7070 -0.3240
  619SOL    HW2 3308   5.778   5.882   3.628  0.7125 -0.2697  0.7465
  620SOL     OW 3309   4.033   5.538   6.040 -0.1018 -0.4416 -0.0973
  620SOL    HW1 3310   4.043   5.599   5.966 -3.2980 -0.4234 -0.6759
  620SOL    HW2 3311   4.016   5.454   5.999 -0.2501 -0.7783  0.6404
  621SOL     OW 3312   6.248   2.243   5.142  0.0220  0.0269 -0.0644
  621SOL    HW1 3313   6.315   2.304   5.172 -0.7070  0.0110  1.7028
  621SOL    HW2 3314   6.176   2.252   5.205 -0.5473 -1.8682 -0.3650
  622SOL     OW 3315   4.566   2.334   1.155 -0.2980  0.2820 -0.7808
  622SOL    HW1 3316   4.549   2.424   1.184 -0.6154 -0.0014 -0.0783
  622SOL    HW2 3317   4.623   2.344   1.079  1.4085  1.0146  0.5421
  623SOL     OW 3318   7.019   0.438   4.479  0.3923 -0.3257  0.3494
  623SOL    HW1 3319   6.989   0.498   4.411  1.4599  1.9661  1.7705
  623SOL    HW2 3320   6.972   0.464   4.557  0.9368 -1.3220  1.0385
  624SOL     OW 3321   6.019   0.154   1.295 -0.1174 -0.1054  0.7643
  624SOL    HW1 3322   6.044   0.069   1.258  1.6802  0.1219  1.3665
  624SOL    HW2 3323   5.928   0.143   1.323 -0.0977 -1.6311  0.2831
  625SOL     OW 3324   0.473   0.463   5.111  0.7987 -0.0250 -0.4459
  625SOL    HW1 3325   0.448   0.389   5.167  0.6710  0.5117  0.2230
  625SOL    HW2 3326   0.519   0.523   5.170  0.5803  0.5916 -0.8957
  626SOL     OW 3327   6.003   7.065   7.100 -0.3882  0.3676 -0.2936
  626SOL    HW1 3328   6.088   7.024   7.119  0.4735  2.6658  1.2780
  626SOL    HW2 3329   5.944   7.029   7.167  0.0050  0.6792  0.2246
  627SOL     OW 3330   4.287   4.968   1.803 -0.2078 -0.1695 -0.0581
  627SOL    HW1 3331   4.329   4.907   1.863  0.1651 -0.2719 -0.4216
  627SOL    HW2 3332   4.210   4.999   1.850 -0.0613 -0.4528  0.3671
  628SOL     OW 3333   4.310   4.023   2.188  0.6024  0.1008  0.3164
  628SOL    HW1 3334   4.336   3.972   2.265 -3.2466 -1.1341  1.0434
  628SOL    HW2 3335   4.326   3.964   2.114 -1.0673 -1.1598  0.8713
  629SOL     OW 3336   2.033   4.058   5.197  0.2059  0.3504  0.0943
  629SOL    HW1 3337   2.032   4.074   5.103 -0.9012  3.0052  0.4541
  629SOL    HW2 3338   2.097   4.122   5.231  0.7325 -0.6988  1.1379
  630SOL     OW 3339   1.320   0.554   0.021  0.6624 -0.3233 -0.2813
  630SOL    HW1 3340   1.335   0.635   0.070 -1.1108 -0.4013  0.4878
  630SOL    HW2 3341   1.376   0.561  -0.056  0.5808  1.6194 -0.2122
  631SOL     OW 3342   4.106   1.345   5.041  0.1196  0.2122  0.2469
  631SOL    HW1 3343   4.017   1.380   5.035  0.6786  1.7898  0.7487
  631SOL    HW2 3344   4.097   1.264   5.091 -1.1977 -0.3565 -0.8539
  632SOL     OW 3345   2.724   5.902   6.132  0.0835 -0.0791 -0.1830
  632SOL    HW1 3346   2.641   5.862   6.106 -0.4076  1.3265 -0.8902
  632SOL    HW2 3347   2.754   5.848   6.205 -0.3142 -1.9636 -1.3392
  633SOL     OW 3348   0.067   6.854   5.834  0.4760 -0.5726  0.0932
  633SOL    HW1 3349   0.129   6.902   5.889  1.7489 -0.9499 -0.9625
  633SOL    HW2 3350   0.025   6.792   5.894  0.7048  0.0691  0.9451
  634SOL     OW 3351   0.538   1.757   6.930 -0.2030 -0.3511 -0.0545
  634SOL    HW1 3352   0.534   1.724   7.020  0.8529 -1.1823 -0.2916
  634SOL    HW2 3353   0.503   1.685   6.877 -2.4332  0.7647 -0.2067
  635SOL     OW 3354   6.731   5.835   3.258  0.4440  0.0410 -0.1395
  635SOL    HW1 3355   6.735   5.923   3.222 -0.0246 -0.2677 -0.9806
  635SOL    HW2 3356   6.669   5.842   3.331  1.4908  0.6960  0.7025
  636SOL     OW 3357   3.125   2.903   0.268 -0.3331 -0.1153  0.1753
  636SOL    HW1 3358   3.155   2.814   0.246 -1.4423 -0.3316 -0.5405
  636SOL    HW2 3359   3.193   2.960   0.232 -1.1577 -0.5499 -2.2921
  637SOL     OW 3360   7.088   5.859   6.262  0.0072 -0.0215 -0.2382
  637SOL    HW1 3361   7.045   5.930   6.310 -0.3998 -0.8677  0.6877
  637SOL    HW2 3362   7.173   5.849   6.306 -0.0714 -0.3159 -0.1492
  638SOL     OW 3363   0.010   4.603   3.976  0.2850  0.8433  0.2862
  638SOL    HW1 3364   0.099   4.625   3.952  0.3976  0.7514  0.6118
  638SOL    HW2 3365  -0.033   4.688   3.990  0.3324  0.8863  0.1710
  639SOL     OW 3366   5.337   6.343   2.338 -0.6760  0.5124 -0.2227
  639SOL    HW1 3367   5.329   6.354   2.243 -0.1766 -0.9607 -0.4586
  639SOL    HW2 3368   5.250   6.316   2.366 -0.6754  0.3679 -0.3555
  640SOL     OW 3369   5.946   5.395   5.968 -0.9625  0.8654 -0.3211
  640SOL    HW1 3370   5.863   5.350   5.957  0.9414 -2.7697 -1.5354
  640SOL    HW2 3371   5.985   5.355   6.046  0.5108  0.9634 -0.9801
  641SOL     OW 3372   3.268   5.907   0.154 -0.1369  0.5055  0.3809
  641SOL    HW1 3373   3.237   5.817   0.163 -1.5022  0.9138 -0.0232
  641SOL    HW2 3374   3.215   5.944   0.083  1.9506  0.9876 -0.9987
  642SOL     OW 3375   1.634   5.811   6.379  0.2917 -0.0798  0.0762
  642SOL    HW1 3376   1.696   5.769   6.319  1.2772  1.7144 -0.2177
  642SOL    HW2 3377   1.582   5.738   6.415  0.9562 -1.3762 -1.4891
  643SOL     OW 3378   5.230   5.209   0.386  0.2844 -0.4446 -0.1969
  643SOL    HW1 3379   5.215   5.237   0.476  0.5542 -1.0088  0.0336
  643SOL    HW2 3380   5.267   5.286   0.343  0.1369 -0.1642  0.1675
  644SOL     OW 3381   1.218   4.491   3.148 -0.9485  0.9597 -0.2538
  644SOL    HW1 3382   1.217   4.428   3.076 -1.5204 -0.4480  0.9347
  644SOL    HW2 3383   1.309   4.522   3.152 -1.1249  1.8956 -2.2207
  645SOL     OW 3384   6.609   0.727   5.433 -0.3350  0.0919 -0.1209
  645SOL    HW1 3385   6.535   0.678   5.469  2.7079 -3.3390  2.2125
  645SOL    HW2 3386   6.633   0.680   5.353  0.8322 -0.4719  0.5378
  646SOL     OW 3387   4.577   0.762   6.706  0.6282  0.2255  0.7091
  646SOL    HW1 3388   4.632   0.684   6.708 -0.4207 -0.6135 -0.9411
  646SOL    HW2 3389   4.565   0.781   6.613 -0.0720  1.6788  1.0721
  647SOL     OW 3390   4.050   6.122   3.965 -0.2137 -0.2790  0.0374
  647SOL    HW1 3391   4.097   6.136   3.883  0.6262 -0.6066  0.4602
  647SOL    HW2 3392   4.114   6.084   4.024 -1.3889 -2.2604  0.1373
  648SOL     OW 3393   2.898   2.177   2.885  0.1219 -0.5197  0.1385
  648SOL    HW1 3394   2.868   2.188   2.976 -0.2217 -0.0732 -0.0247
  648SOL    HW2 3395   2.819   2.191   2.832  0.4078 -0.3817 -0.2507
  649SOL     OW 3396   3.545   0.185   2.648 -0.2435  0.1989 -0.0515
  649SOL    HW1 3397   3.595   0.165   2.569 -0.0982 -0.4520  0.2019
  649SOL    HW2 3398   3.453   0.178   2.620 -0.1945  0.9751 -0.4101
  650SOL     OW 3399   4.946   5.558   6.531 -0.2766 -0.0313  0.8700
  650SOL    HW1 3400   4.892   5.485   6.501  1.2958 -0.9170  0.0602
  650SOL    HW2 3401   4.935   5.624   6.463 -0.3753 -0.1793  0.7403
  651SOL     OW 3402   0.231   4.255   0.197  0.2395 -0.7758  0.2209
  651SOL    HW1 3403   0.264   4.223   0.113 -0.1798  0.3543 -0.3918
  651SOL    HW2 3404   0.242   4.350   0.193 -1.5385 -0.5028  0.6498
  652SOL     OW 3405   5.856   1.762   6.339 -0.6920  0.7564  0.1240
  652SOL    HW1 3406   5.811   1.772   6.254 -0.2250 -2.2628 -0.6060
  652SOL    HW2 3407   5.791   1.718   6.394 -0.0100  0.0725  0.3828
  653SOL     OW 3408   6.709   5.926   0.456  0.3732  0.4219  0.1121
  653SOL    HW1 3409   6.702   5.851   0.396 -1.0077  0.2939  0.3981
  653SOL    HW2 3410   6.753   5.890   0.533 -1.0441 -0.3642  0.6006
  654SOL     OW 3411   2.838   1.982   1.588 -0.1557 -0.2817 -0.1808
  654SOL    HW1 3412   2.781   2.059   1.590  0.1657 -0.0296  2.3693
  654SOL    HW2 3413   2.893   1.996   1.511 -0.6384  1.6449 -0.2477
  655SOL     OW 3414   0.991   1.046   2.918  0.1205 -0.3048 -0.5218
  655SOL    HW1 3415   1.056   1.080   2.979  1.3263 -0.6878 -1.5336
  655SOL    HW2 3416   0.914   1.101   2.932 -0.0670 -1.0989  2.0894
  656SOL     OW 3417   5.780   4.350   1.002 -0.1073  0.0013  0.3944
  656SOL    HW1 3418   5.828   4.406   1.062 -1.2591  0.9966  0.4169
  656SOL    HW2 3419   5.848   4.307   0.950  0.9291  4.0083 -2.0391
  657SOL     OW 3420   0.372   0.950   4.644  0.0063  0.3816  0.0677
  657SOL    HW1 3421   0.321   0.899   4.707 -0.6445  2.1496  1.0299
  657SOL    HW2 3422   0.443   0.988   4.696 -0.7156  2.1098 -0.1433
  658SOL     OW 3423   1.333   1.170   1.735 -0.6145 -0.0446 -0.1054
  658SOL    HW1 3424   1.272   1.229   1.779 -3.0099 -1.1749 -1.7560
  658SOL    HW2 3425   1.320   1.086   1.778  0.1927 -0.1984 -0.1493
  659SOL     OW 3426   3.100   0.595   1.066 -0.2039  0.2952 -0.1683
  659SOL    HW1 3427   3.130   0.664   1.125 -0.5404  0.0312  0.3271
  659SOL    HW2 3428   3.078   0.522   1.125 -0.8378  0.1380 -0.5928
  660SOL     OW 3429   1.442   4.569   1.167  0.1672 -0.6571  0.2224
  660SOL    HW1 3430   1.391   4.628   1.222  1.2522 -0.6315  1.2576
  660SOL    HW2 3431   1.533   4.598   1.179  0.6456 -2.0577  0.1680
  661SOL     OW 3432   5.325   3.181   2.006 -0.5943  0.6331 -0.0727
  661SOL    HW1 3433   5.350   3.135   1.926  2.6137  1.5607  0.2493
  661SOL    HW2 3434   5.247   3.135   2.037 -0.0176 -1.8607 -1.9726
  662SOL     OW 3435   3.527   0.449   2.888  0.1841 -0.2300  0.0357
  662SOL    HW1 3436   3.537   0.464   2.982  2.6895  1.5074 -0.4071
  662SOL    HW2 3437   3.529   0.354   2.879 -0.2104 -0.4351  1.7294
  663SOL     OW 3438   5.437   0.080   3.546 -0.2461 -0.1030  0.4934
  663SOL    HW1 3439   5.401   0.028   3.618 -0.4613 -2.6246 -1.2758
  663SOL    HW2 3440   5.531   0.058   3.545 -0.4467 -1.0325 -0.6443
  664SOL     OW 3441   6.341   0.879   5.133 -0.2574  0.3690  0.3652
  664SOL    HW1 3442   6.355   0.895   5.226  1.3351 -1.1895  0.4422
  664SOL    HW2 3443   6.344   0.966   5.093 -3.3190  1.3502  1.9593
  665SOL     OW 3444   3.418   3.764   4.533  0.3355  0.2248  0.1185
  665SOL    HW1 3445   3.489   3.751   4.595 -0.8499 -1.2045  1.2785
  665SOL    HW2 3446   3.431   3.696   4.467  0.3564  0.3221  0.0223
  666SOL     OW 3447   0.021   2.726   3.195 -0.2292 -0.3224  0.2552
  666SOL    HW1 3448   0.070   2.789   3.142  1.9410 -0.8990  1.4604
  666SOL    HW2 3449  -0.055   2.775   3.226  0.8983  1.4488  0.3800
  667SOL     OW 3450   4.489   5.177   0.780  0.2678 -0.1250 -0.0167
  667SOL    HW1 3451   4.426   5.176   0.853 -0.0996 -0.4403 -0.3338
  667SOL    HW2 3452   4.529   5.090   0.781 -1.3733 -0.9632 -1.5765
  668SOL     OW 3453   6.727   0.947   3.641  0.4635 -0.2074  0.2663
  668SOL    HW1 3454   6.776   0.999   3.705  0.9829  0.1468 -0.4192
  668SOL    HW2 3455   6.793   0.915   3.580 -0.0098 -0.6939  0.0067
  669SOL     OW 3456   6.543   0.779   4.755 -0.1581 -0.0396  0.0465
  669SOL    HW1 3457   6.593   0.810   4.831 -0.8565  0.3701  0.3415
  669SOL    HW2 3458   6.473   0.843   4.743 -0.4729 -0.4751 -0.5177
  670SOL     OW 3459   5.578   2.203   5.977  0.1773  0.1225 -0.3296
  670SOL    HW1 3460   5.568   2.215   5.882 -0.7139  0.3797 -0.2187
  670SOL    HW2 3461   5.524   2.126   5.997  0.2256  0.1721 -0.0044
  671SOL     OW 3462   0.259   4.536   4.745  0.0302 -0.4253  1.1087
  671SOL    HW1 3463   0.280   4.620   4.702 -1.0338 -0.3258  0.7695
  671SOL    HW2 3464   0.182   4.555   4.798 -1.8390 -1.7825 -0.9796
  672SOL     OW 3465   0.212   5.750   2.221  0.1157  0.1809  0.6344
  672SOL    HW1 3466   0.303   5.740   2.194 -0.0012  1.5879 -0.4249
  672SOL    HW2 3467   0.213   5.827   2.279 -0.6943  1.8255 -1.3843
  673SOL     OW 3468   1.281   0.162   1.445  0.0403 -0.4610  0.1556
  673SOL    HW1 3469   1.244   0.225   1.383 -0.5032  0.5233  1.4415
  673SOL    HW2 3470   1.368   0.142   1.409 -0.2496  0.0947 -0.9134
  674SOL     OW 3471   5.111   6.655   5.417 -0.3546 -0.2469 -0.1082
  674SOL    HW1 3472   5.108   6.563   5.394  0.4499 -0.2036 -0.4283
  674SOL    HW2 3473   5.080   6.700   5.339  2.5987 -0.0880 -1.3431
  675SOL     OW 3474   5.151   5.872   6.342  0.0995 -0.4004  0.7206
  675SOL    HW1 3475   5.234   5.915   6.320 -0.3573 -0.1169 -0.4870
  675SOL    HW2 3476   5.135   5.896   6.433  0.6006  0.7655  0.5142
  676SOL     OW 3477   0.366   2.454   0.908 -0.4691  0.5625  0.3820
  676SOL    HW1 3478   0.319   2.395   0.967 -0.6687  0.2191 -0.1157
  676SOL    HW2 3479   0.455   2.421   0.907 -0.9210 -0.6829 -1.0958
  677SOL     OW 3480   5.401   2.396   4.005  0.1526 -0.3901  0.1561
  677SOL    HW1 3481   5.332   2.463   4.009 -1.0712 -1.5960  0.1838
  677SOL    HW2 3482   5.481   2.443   4.027 -0.7409  0.9574  0.7169
  678SOL     OW 3483   4.716   4.030   6.966 -0.0511  0.2671  0.8180
  678SOL    HW1 3484   4.648   3.972   6.931  0.4263  0.1654  0.0410
  678SOL    HW2 3485   4.679   4.118   6.957  0.8633  0.4760 -1.9943
  679SOL     OW 3486   4.622   4.990   0.411 -0.0402 -0.3998 -0.4391
  679SOL    HW1 3487   4.529   4.987   0.431  0.5182 -1.9088  2.4810
  679SOL    HW2 3488   4.651   5.074   0.446  0.1787 -1.2250  1.4433
  680SOL     OW 3489   2.025   0.841   4.256  0.5334 -0.0969  0.6031
  680SOL    HW1 3490   1.952   0.900   4.238  0.5261 -0.5518 -1.0473
  680SOL    HW2 3491   1.990   0.778   4.319 -0.9599 -1.0840 -1.1286
  681SOL     OW 3492   6.295   3.250   5.988 -0.1305 -0.8866 -0.3201
  681SOL    HW1 3493   6.303   3.157   6.012  2.0900 -0.5213  0.5281
  681SOL    HW2 3494   6.258   3.291   6.066 -1.0276 -1.0058 -0.6642
  682SOL     OW 3495   2.928   4.360   4.414  0.7500  0.1704  0.6931
  682SOL    HW1 3496   2.993   4.326   4.474  0.9851 -2.0142 -0.6778
  682SOL    HW2 3497   2.955   4.328   4.328 -0.4416  1.8368 -0.3789
  683SOL     OW 3498   4.701   2.530   5.697  0.0668  0.3173  0.0169
  683SOL    HW1 3499   4.724   2.460   5.637  0.4032 -0.6517  1.2205
  683SOL    HW2 3500   4.785   2.567   5.725  0.2322 -1.7168  2.6674
  684SOL     OW 3501   5.625   3.880   5.435  0.0127  0.3777  0.3471
  684SOL    HW1 3502   5.660   3.802   5.393 -0.8297  0.1962 -0.0270
  684SOL    HW2 3503   5.682   3.893   5.511 -0.2200 -0.9792  0.7820
  685SOL     OW 3504   2.565   0.204   1.635  0.1419 -0.1070  0.1915
  685SOL    HW1 3505   2.633   0.264   1.606  0.5568 -0.2975  0.7398
  685SOL    HW2 3506   2.568   0.209   1.731 -2.6693  2.2140  0.3151
  686SOL     OW 3507   0.405   0.229   1.026 -0.4505 -0.1448  0.1531
  686SOL    HW1 3508   0.408   0.322   1.001 -1.7808 -0.0213  0.3709
  686SOL    HW2 3509   0.444   0.183   0.952 -0.4875  0.5376 -0.3005
  687SOL     OW 3510   4.099   0.631   2.624 -0.7502 -0.3693 -0.3540
  687SOL    HW1 3511   4.144   0.579   2.558 -0.9962  1.2323 -1.8417
  687SOL    HW2 3512   4.006   0.613   2.609 -0.7747 -1.1041  0.5434
  688SOL     OW 3513   5.028   5.980   2.378 -0.4185  0.1577 -0.1395
  688SOL    HW1 3514   4.980   6.040   2.434 -0.3681 -0.2651  0.3653
  688SOL    HW2 3515   5.074   5.922   2.439 -0.5870 -0.4862 -0.6186
  689SOL     OW 3516   0.383   5.064   1.486 -0.0146  0.3868 -0.2864
  689SOL    HW1 3517   0.320   5.021   1.428  1.0768 -0.5325 -0.8243
  689SOL    HW2 3518   0.337   5.142   1.518 -1.3937 -0.2233 -0.7062
  690SOL     OW 3519   4.312   2.176   6.130  0.6435  0.4310 -0.2033
  690SOL    HW1 3520   4.314   2.082   6.108 -0.6400  0.7714 -2.0295
  690SOL    HW2 3521   4.237   2.186   6.188  0.1164  0.4682 -0.8790
  691SOL     OW 3522   1.751   1.343   4.219  0.7705  0.0143  0.5453
  691SOL    HW1 3523   1.694   1.299   4.282  0.0578  1.2856  0.8179
  691SOL    HW2 3524   1.704   1.423   4.196  1.3421 -0.0854 -1.0828
  692SOL     OW 3525   0.988   1.294   3.932 -0.1231  0.2489  0.4245
  692SOL    HW1 3526   1.040   1.263   3.857 -1.0732 -0.6551  0.1156
  692SOL    HW2 3527   1.039   1.268   4.009 -0.6080 -1.6614  0.1613
  693SOL     OW 3528   1.011   6.869   2.187  0.0750 -0.4647 -0.5276
  693SOL    HW1 3529   0.919   6.879   2.163 -0.5131  1.1338  1.9892
  693SOL    HW2 3530   1.060   6.892   2.108 -1.6647 -0.4717 -1.6447
  694SOL     OW 3531   1.521   4.245   2.629 -0.5155  0.0013 -0.1614
  694SOL    HW1 3532   1.504   4.281   2.542 -1.7302 -0.0970  0.0065
  694SOL    HW2 3533   1.447   4.185   2.645  0.0937 -0.5726  0.6232
  695SOL     OW 3534   6.687   1.153   5.942  0.2754  0.1988  0.7485
  695SOL    HW1 3535   6.702   1.083   5.880 -1.0199  1.1123 -0.6595
  695SOL    HW2 3536   6.684   1.109   6.027  0.3517 -1.3163  0.0019
  696SOL     OW 3537   0.557   0.285   3.569 -0.3156  0.6945 -0.2815
  696SOL    HW1 3538   0.503   0.240   3.504  2.1190 -3.4623  0.2297
  696SOL    HW2 3539   0.497   0.302   3.642 -1.4095 -2.3585 -0.3234
  697SOL     OW 3540   6.641   5.182   2.734 -0.0141 -0.7810  0.1892
  697SOL    HW1 3541   6.704   5.218   2.671  0.0121 -1.4661 -0.1924
  697SOL    HW2 3542   6.680   5.100   2.763 -0.0155 -0.4601  1.1362
  698SOL     OW 3543   4.527   5.017   4.227 -0.0011  0.4593 -0.2152
  698SOL    HW1 3544   4.481   4.968   4.295 -0.6561 -0.8085 -1.5050
  698SOL    HW2 3545   4.616   4.983   4.228 -0.0589  0.3137 -0.1085
  699SOL     OW 3546   1.035   6.665   2.867 -0.0053  0.4637  0.2040
  699SOL    HW1 3547   1.038   6.754   2.904  1.1284  0.2702  0.6147
  699SOL    HW2 3548   0.986   6.675   2.785 -0.2764  1.3867  0.4623
  700SOL     OW 3549   7.056   5.293   1.089  0.1944 -0.5634 -0.2048
  700SOL    HW1 3550   7.104   5.211   1.078  1.3482 -0.0791  0.8912
  700SOL    HW2 3551   7.068   5.339   1.006  0.2558 -1.1431 -0.5205
  701SOL     OW 3552   5.335   3.405   4.008  0.4277 -0.1101 -0.0556
  701SOL    HW1 3553   5.272   3.422   4.078  1.3419  0.2286  0.7076
  701SOL    HW2 3554   5.297   3.333   3.958 -1.0243  0.7246 -0.2016
  702SOL     OW 3555   1.225   5.728   3.114 -0.2059 -0.2844 -0.0292
  702SOL    HW1 3556   1.170   5.781   3.172  1.3867  1.7787 -0.2935
  702SOL    HW2 3557   1.278   5.676   3.174  1.1490  1.5448  0.4605
  703SOL     OW 3558   2.712   4.652   4.251  0.1750 -0.0506  0.2060
  703SOL    HW1 3559   2.724   4.602   4.171  1.8386  0.5988 -0.0065
  703SOL    HW2 3560   2.650   4.721   4.229 -1.2210 -1.2775  0.1748
  704SOL     OW 3561   0.828   2.712   1.123  0.0071 -0.3884 -0.5422
  704SOL    HW1 3562   0.785   2.775   1.066 -1.2601 -0.2596  0.5013
  704SOL    HW2 3563   0.920   2.739   1.123 -0.1191  0.1224 -1.8068
  705SOL     OW 3564   2.198   4.506   0.495  0.5825 -0.1431  0.1330
  705SOL    HW1 3565   2.163   4.500   0.406  2.7285 -0.0902 -0.7665
  705SOL    HW2 3566   2.120   4.510   0.551 -0.8334 -1.3840 -1.6312
  706SOL     OW 3567   4.500   5.852   0.700  0.1170 -0.3597  0.1980
  706SOL    HW1 3568   4.552   5.905   0.640 -1.5825 -0.6130 -1.6020
  706SOL    HW2 3569   4.563   5.798   0.746  1.7816  2.0443  0.9682
  707SOL     OW 3570   3.944   1.345   2.386  0.2253 -0.7052 -1.0661
  707SOL    HW1 3571   3.899   1.410   2.441  3.4538 -0.5806  1.7221
  707SOL    HW2 3572   3.975   1.395   2.311 -1.7126 -0.2356 -1.6358
  708SOL     OW 3573   2.761   1.687   6.712  0.1237 -0.7947  0.2093
  708SOL    HW1 3574   2.673   1.658   6.688 -0.2687 -2.2200  3.0031
  708SOL    HW2 3575   2.765   1.778   6.682 -1.3041 -1.4424 -2.2431
  709SOL     OW 3576   3.326   3.598   5.179 -0.5225  0.1326 -0.5752
  709SOL    HW1 3577   3.259   3.658   5.146 -0.7618 -0.6339 -1.5338
  709SOL    HW2 3578   3.279   3.518   5.200 -0.3259  0.4832  1.4111
  710SOL     OW 3579   1.609   0.124   1.077 -0.1545  0.0965 -0.1402
  710SOL    HW1 3580   1.537   0.123   1.139 -0.1257 -0.1545 -0.1094
  710SOL    HW2 3581   1.587   0.193   1.015 -0.6045 -0.2285 -0.3442
  711SOL     OW 3582   5.887   0.325   0.405 -0.0582  0.6754  0.0085
  711SOL    HW1 3583   5.827   0.306   0.333  0.2773 -0.8257  0.0870
  711SOL    HW2 3584   5.853   0.274   0.479  0.4052  1.0863  0.5153
  712SOL     OW 3585   3.525   5.418   5.376  1.3662 -0.0108 -0.0502
  712SOL    HW1 3586   3.559   5.412   5.287  1.2589  0.1551 -0.1006
  712SOL    HW2 3587   3.499   5.328   5.398  0.6056  0.1007 -0.4874
  713SOL     OW 3588   2.672   4.597   1.708 -0.3387 -0.1584  0.6163
  713SOL    HW1 3589   2.705   4.648   1.633 -1.5825  0.0927  0.2132
  713SOL    HW2 3590   2.691   4.652   1.784  0.2075 -0.0457  0.4017
  714SOL     OW 3591   3.936   3.637   2.189 -0.7292  0.3574 -0.1013
  714SOL    HW1 3592   4.019   3.616   2.147 -0.9371 -0.7774  0.0323
  714SOL    HW2 3593   3.931   3.733   2.185  0.8160  0.4918  0.3387
  715SOL     OW 3594   2.855   3.003   3.074  0.1591  0.2648 -0.2606
  715SOL    HW1 3595   2.788   2.944   3.107  0.5919 -1.9961 -3.0256
  715SOL    HW2 3596   2.938   2.958   3.091  0.7275  1.3525 -0.0341
  716SOL     OW 3597   0.541   0.188   3.122  0.0967  0.0817 -0.4315
  716SOL    HW1 3598   0.614   0.147   3.075  0.3571  0.6270 -0.5034
  716SOL    HW2 3599   0.513   0.121   3.184  1.4754  0.3090  0.4826
  717SOL     OW 3600   0.756   6.575   6.821 -0.0478 -0.4076 -0.0001
  717SOL    HW1 3601   0.778   6.503   6.881 -0.8098 -0.2369  0.4900
  717SOL    HW2 3602   0.713   6.532   6.748 -2.3506 -0.3028  1.2008
  718SOL     OW 3603   5.099   1.759   7.130  0.2181  0.6736  0.4668
  718SOL    HW1 3604   5.167   1.794   7.188  0.0451  2.8578 -0.5469
  718SOL    HW2 3605   5.017   1.784   7.171  0.0829  3.6530 -1.3810
  719SOL     OW 3606   6.376   4.919   4.071 -0.1771  0.2049  0.0597
  719SOL    HW1 3607   6.386   4.956   3.983 -0.1622  0.5279  0.1976
  719SOL    HW2 3608   6.465   4.906   4.102 -0.1837  0.3231  0.1267
  720SOL     OW 3609   1.251   3.414   2.662  0.3125 -0.5581 -0.2735
  720SOL    HW1 3610   1.161   3.384   2.668  0.8590 -2.4927 -0.9692
  720SOL    HW2 3611   1.296   3.369   2.735  1.0350 -1.0151 -0.9786
  721SOL     OW 3612   4.360   3.454   0.106 -0.1116 -0.0687 -0.0082
  721SOL    HW1 3613   4.319   3.508   0.174 -0.2404 -0.7545  0.4710
  721SOL    HW2 3614   4.384   3.516   0.037 -1.2262  0.4676  0.0541
  722SOL     OW 3615   5.874   2.561   1.222  0.0178 -0.2692 -0.3253
  722SOL    HW1 3616   5.779   2.560   1.234  0.0867  1.7675  0.8981
  722SOL    HW2 3617   5.909   2.547   1.310  0.8220  0.2659 -0.5447
  723SOL     OW 3618   6.746   4.056   4.448  0.0423  0.3082 -0.2744
  723SOL    HW1 3619   6.827   4.006   4.453 -1.1246 -1.6859 -0.0816
  723SOL    HW2 3620   6.690   4.006   4.389 -2.9439 -1.4627  3.5440
  724SOL     OW 3621   7.066   2.187   5.229 -0.0921 -0.4302 -0.1528
  724SOL    HW1 3622   7.039   2.248   5.298 -0.2294 -0.2656 -0.3487
  724SOL    HW2 3623   7.009   2.111   5.241  0.1822 -0.5869  0.1875
  725SOL     OW 3624   5.336   6.228   4.528 -0.3344  0.4976  0.1898
  725SOL    HW1 3625   5.343   6.138   4.562 -0.3265  0.3416 -0.2199
  725SOL    HW2 3626   5.376   6.224   4.441  3.7628  1.8277  1.7580
  726SOL     OW 3627   2.342   2.755   2.780  0.9843 -0.0780  0.2130
  726SOL    HW1 3628   2.394   2.813   2.724 -1.3147  1.4681 -0.4592
  726SOL    HW2 3629   2.340   2.800   2.865 -0.4395  0.6542 -0.1857
  727SOL     OW 3630   3.649   5.696   0.742  0.6473 -0.1059  0.7718
  727SOL    HW1 3631   3.631   5.672   0.651 -0.3980  1.4828  0.5127
  727SOL    HW2 3632   3.697   5.778   0.736  1.0162 -0.2473  1.6531
  728SOL     OW 3633   0.069   4.431   0.531 -0.5422  0.1550  0.1245
  728SOL    HW1 3634   0.089   4.432   0.625  2.5654  1.4614 -0.4288
  728SOL    HW2 3635   0.029   4.516   0.514  1.0346  0.8950 -0.0549
  729SOL     OW 3636   6.309   4.576   4.148  0.3327 -0.4390  0.8385
  729SOL    HW1 3637   6.382   4.596   4.089  1.3558 -2.3857  1.3682
  729SOL    HW2 3638   6.231   4.599   4.098  1.1762 -1.6614 -1.1565
  730SOL     OW 3639   4.310   0.496   5.423 -0.6778 -0.3662  0.0223
  730SOL    HW1 3640   4.382   0.434   5.413 -1.5594 -1.5021  0.4697
  730SOL    HW2 3641   4.344   0.578   5.387  0.1989 -1.3339 -1.4882
  731SOL     OW 3642   6.949   4.824   6.222  0.1592 -0.1018 -0.0471
  731SOL    HW1 3643   6.893   4.761   6.176 -0.5055  1.0609 -0.8766
  731SOL    HW2 3644   6.892   4.899   6.239  0.9812  0.3581  0.7620
  732SOL     OW 3645   1.802   7.022   0.486 -0.0795  0.1468 -0.2880
  732SOL    HW1 3646   1.716   7.065   0.487  0.5002  1.8602  4.2398
  732SOL    HW2 3647   1.795   6.955   0.554  1.7617 -0.7136 -0.9001
  733SOL     OW 3648   5.423   5.867   2.216  0.1828 -0.2653  0.2601
  733SOL    HW1 3649   5.347   5.809   2.218  0.4212 -0.6063 -0.5843
  733SOL    HW2 3650   5.498   5.810   2.228  0.5557 -0.4145 -2.2499
  734SOL     OW 3651   2.155   6.873   3.880  0.0853  0.4020  0.0596
  734SOL    HW1 3652   2.235   6.823   3.896 -1.1129 -2.0126 -0.9575
  734SOL    HW2 3653   2.145   6.927   3.959  1.8376 -0.4399  0.9280
  735SOL     OW 3654   1.037   6.295   6.481  0.1800 -0.0223  0.1497
  735SOL    HW1 3655   1.113   6.239   6.497  0.0336 -0.3593 -0.3005
  735SOL    HW2 3656   0.971   6.264   6.544 -0.7097 -1.9529 -1.6031
  736SOL     OW 3657   3.640   5.063   0.408 -0.2024  0.2020 -0.2656
  736SOL    HW1 3658   3.716   5.004   0.407  1.2174  1.9286 -1.1582
  736SOL    HW2 3659   3.580   5.027   0.343 -0.2765 -1.3173  0.6008
  737SOL     OW 3660   1.613   5.292   0.458  0.2266 -0.2660 -0.3202
  737SOL    HW1 3661   1.527   5.285   0.499  0.6946  0.4849  0.8599
  737SOL    HW2 3662   1.599   5.348   0.382 -0.0976  1.0055  0.6458
  738SOL     OW 3663   3.516   4.809   1.885  0.2180  0.4247 -0.3043
  738SOL    HW1 3664   3.531   4.885   1.941  1.0951  0.8570 -1.1022
  738SOL    HW2 3665   3.533   4.734   1.942 -1.4654  0.7692  0.7216
  739SOL     OW 3666   0.403   3.021   5.970 -0.3814 -0.6516  0.1010
  739SOL    HW1 3667   0.478   3.041   5.914 -0.1270  0.3095  0.7564
  739SOL    HW2 3668   0.435   3.039   6.059 -1.3013 -0.5079  0.4080
  740SOL     OW 3669   4.042   5.225   4.450  0.7851 -0.0209  0.3234
  740SOL    HW1 3670   4.070   5.142   4.413  0.1530 -0.2596  0.3541
  740SOL    HW2 3671   3.968   5.253   4.395  1.0008  0.5318  0.3011
  741SOL     OW 3672   4.049   3.166   3.376 -0.2810  0.1228 -0.1477
  741SOL    HW1 3673   3.960   3.201   3.388 -0.6113 -0.4052 -0.9584
  741SOL    HW2 3674   4.105   3.224   3.427 -1.3603 -0.9151  2.4560
  742SOL     OW 3675   3.237   3.344   3.961  0.1213 -0.1351  0.1745
  742SOL    HW1 3676   3.265   3.285   3.890  1.3653 -0.1962  0.6966
  742SOL    HW2 3677   3.207   3.423   3.916 -1.2535 -1.0084 -0.5200
  743SOL     OW 3678   0.250   5.126   1.997  0.0115 -0.0100  0.4060
  743SOL    HW1 3679   0.280   5.094   2.082 -1.5905  0.1828  1.0899
  743SOL    HW2 3680   0.208   5.050   1.957 -0.3193  0.2070  0.3334
  744SOL     OW 3681   1.404   7.024   6.588  0.1579 -0.7071 -0.3190
  744SOL    HW1 3682   1.450   6.955   6.540 -0.2793 -0.1882 -1.5069
  744SOL    HW2 3683   1.394   7.096   6.526 -0.3152  0.0419  0.5811
  745SOL     OW 3684   7.057   1.798   4.286 -0.1192 -0.6071  0.7923
  745SOL    HW1 3685   7.016   1.757   4.362 -1.5430 -0.1980  0.2825
  745SOL    HW2 3686   6.984   1.834   4.236  0.8705  0.0474 -0.2366
  746SOL     OW 3687   6.820   3.619   1.236 -0.4159  1.0284  0.2817
  746SOL    HW1 3688   6.870   3.571   1.170  2.7427  2.9074  1.1181
  746SOL    HW2 3689   6.787   3.550   1.294 -0.1987 -0.4220 -1.2307
  747SOL     OW 3690   3.839   4.059   6.786  0.0084  0.2268 -0.2220
  747SOL    HW1 3691   3.747   4.082   6.803 -0.3030  0.7519 -2.3512
  747SOL    HW2 3692   3.871   4.027   6.870 -2.9307 -2.8383 -0.0416
  748SOL     OW 3693   6.790   6.068   5.593 -0.4213 -0.4628  0.2841
  748SOL    HW1 3694   6.798   6.004   5.664  0.8438  1.1228  1.6267
  748SOL    HW2 3695   6.826   6.023   5.516  1.1447 -1.1228  1.3575
  749SOL     OW 3696   5.306   1.650   1.195 -0.0848  0.6812  0.6679
  749SOL    HW1 3697   5.349   1.695   1.267  0.5676  2.4707 -0.7694
  749SOL    HW2 3698   5.214   1.678   1.202 -0.0861  0.6089  0.9755
  750SOL     OW 3699   2.179   1.652   4.080 -0.5228 -0.4378  0.1732
  750SOL    HW1 3700   2.207   1.582   4.021  0.5984 -0.4358  0.6741
  750SOL    HW2 3701   2.222   1.632   4.163  0.5901  1.3439  0.0824
  751SOL     OW 3702   3.490   2.599   1.607  0.2017 -0.3714  0.2754
  751SOL    HW1 3703   3.567   2.560   1.647  1.2038  1.2970  0.0466
  751SOL    HW2 3704   3.520   2.630   1.522 -0.8441 -0.0733 -0.0027
  752SOL     OW 3705   7.050   3.997   4.895 -0.1891  0.5043  0.4673
  752SOL    HW1 3706   7.048   3.932   4.966 -1.0275  0.0052  0.0108
  752SOL    HW2 3707   6.960   3.997   4.862 -0.2311  2.0162  0.5529
  753SOL     OW 3708   4.460   4.653   4.254  0.0273  1.0019 -0.3802
  753SOL    HW1 3709   4.491   4.743   4.259  0.5247  0.7984  0.3866
  753SOL    HW2 3710   4.394   4.654   4.185 -1.5034  2.4074  0.9966
  754SOL     OW 3711   2.301   4.016   3.651 -0.3218 -0.5723 -0.4143
  754SOL    HW1 3712   2.245   3.949   3.612 -4.5824  1.1828  1.9610
  754SOL    HW2 3713   2.370   3.967   3.696 -2.0725 -3.2592 -0.4226
  755SOL     OW 3714   1.228   6.038   4.155 -0.6816 -0.1237 -0.0702
  755SOL    HW1 3715   1.173   6.071   4.083 -1.2089 -1.3799 -0.2776
  755SOL    HW2 3716   1.296   5.987   4.111 -1.7309 -1.9546  0.3208
  756SOL     OW 3717   2.969   4.980   2.473 -0.3988 -0.0520 -0.0147
  756SOL    HW1 3718   2.894   4.942   2.427  0.6233 -0.8509 -1.0537
  756SOL    HW2 3719   2.943   4.978   2.565 -0.8747 -2.1878 -0.1403
  757SOL     OW 3720   3.362   3.973   4.731 -0.5228 -0.1461 -0.3111
  757SOL    HW1 3721   3.387   3.895   4.681 -1.4720 -1.6364  1.4369
  757SOL    HW2 3722   3.282   3.948   4.777  0.0987  1.2698  1.6785
  758SOL     OW 3723   1.047   5.394   3.169 -0.7865 -0.3000  0.1867
  758SOL    HW1 3724   0.960   5.426   3.195 -0.6339  0.9558 -0.7483
  758SOL    HW2 3725   1.061   5.431   3.081  0.7582 -0.3503  0.3848
  759SOL     OW 3726   2.802   2.201   4.332  0.0274 -0.5270 -0.4288
  759SOL    HW1 3727   2.795   2.295   4.344  1.0923 -0.5861  0.8445
  759SOL    HW2 3728   2.765   2.185   4.245 -1.3241  0.8969 -0.1735
  760SOL     OW 3729   6.709   2.795   4.292  0.1925  0.6384 -0.9084
  760SOL    HW1 3730   6.746   2.881   4.313 -0.7812  0.8653 -0.0054
  760SOL    HW2 3731   6.663   2.808   4.209 -0.7798  1.2654 -0.2909
  761SOL     OW 3732   0.039   5.352   0.476 -0.0250 -0.3998  0.4927
  761SOL    HW1 3733  -0.040   5.300   0.465  0.2445 -1.4327  2.9656
  761SOL    HW2 3734   0.009   5.433   0.518  0.0792 -0.2628  0.3044
  762SOL     OW 3735   6.166   6.923   0.474  0.5742 -0.4410  0.1718
  762SOL    HW1 3736   6.141   6.982   0.546  0.1473  1.3908 -1.3824
  762SOL    HW2 3737   6.175   6.837   0.515 -0.1562  0.4330  2.3076
  763SOL     OW 3738   2.704   4.039   3.205  0.3118 -0.7030 -0.1025
  763SOL    HW1 3739   2.670   3.991   3.129 -0.1100  0.5238 -0.7252
  763SOL    HW2 3740   2.683   3.984   3.280 -0.0192 -1.5531 -0.8024
  764SOL     OW 3741   5.378   5.270   1.286 -0.3217  0.1549  0.2610
  764SOL    HW1 3742   5.298   5.238   1.244  0.0195 -1.1298  0.5764
  764SOL    HW2 3743   5.365   5.365   1.290 -0.7747  0.2487 -1.8985
  765SOL     OW 3744   6.098   2.597   0.502  0.0077  0.0438 -0.0898
  765SOL    HW1 3745   6.128   2.562   0.418  1.0022  0.1640  0.1968
  765SOL    HW2 3746   6.008   2.624   0.487  0.0892 -0.1982 -1.0384
  766SOL     OW 3747   6.881   0.993   4.886 -0.7247 -0.2733  0.0315
  766SOL    HW1 3748   6.846   0.969   4.972  1.3273  0.1115  1.0591
  766SOL    HW2 3749   6.896   1.088   4.892  0.4638 -0.4123 -0.3077
  767SOL     OW 3750   5.862   6.860   0.749  0.2825  0.1214 -0.1584
  767SOL    HW1 3751   5.866   6.831   0.658 -1.1763 -0.4809 -0.0452
  767SOL    HW2 3752   5.905   6.946   0.748 -0.8419  0.7012 -1.6670
  768SOL     OW 3753   1.446   5.513   5.351 -0.0193 -0.1855 -0.1259
  768SOL    HW1 3754   1.539   5.513   5.376 -0.1789 -0.2595  0.4784
  768SOL    HW2 3755   1.447   5.521   5.256  0.6029  0.0658 -0.1005
  769SOL     OW 3756   0.824   2.945   1.746 -0.5324 -0.2513  0.1735
  769SOL    HW1 3757   0.846   2.876   1.807  0.3451  0.6926  0.9667
  769SOL    HW2 3758   0.903   2.957   1.693 -0.2405  0.9460  0.8511
  770SOL     OW 3759   6.531   2.729   5.486 -1.1559  0.1949 -0.4594
  770SOL    HW1 3760   6.474   2.652   5.490  0.0551 -0.7393 -0.5902
  770SOL    HW2 3761   6.572   2.724   5.400 -3.1031  2.5452 -1.6645
  771SOL     OW 3762   1.958   3.118   4.994 -0.0675  0.3091 -0.4701
  771SOL    HW1 3763   1.969   3.147   5.084 -0.8441  0.8741 -0.5537
  771SOL    HW2 3764   1.881   3.061   4.996  0.8426 -0.9657 -0.4947
  772SOL     OW 3765   3.944   4.182   2.814 -0.3738 -0.4139 -0.6368
  772SOL    HW1 3766   3.850   4.163   2.819 -0.4356  0.1512  0.6984
  772SOL    HW2 3767   3.950   4.258   2.757 -0.9064  0.5653  0.5718
  773SOL     OW 3768   0.343   6.072   6.209 -0.1710 -0.2754 -0.3149
  773SOL    HW1 3769   0.411   6.113   6.155  0.7470  0.7873  1.5266
  773SOL    HW2 3770   0.287   6.144   6.236 -0.0653 -0.5933  0.8484
  774SOL     OW 3771   0.412   0.882   1.423  0.1465 -0.3008  0.2525
  774SOL    HW1 3772   0.330   0.862   1.378  0.2958 -0.7730  0.1832
  774SOL    HW2 3773   0.470   0.914   1.353 -0.3421  1.1852  0.4887
  775SOL     OW 3774   0.429   6.985   0.589 -0.0397  0.4198 -0.7379
  775SOL    HW1 3775   0.364   7.055   0.589 -0.2645  0.2172 -0.1087
  775SOL    HW2 3776   0.513   7.029   0.580 -0.2126  0.7397 -0.7693
  776SOL     OW 3777   1.157   1.415   3.363 -0.2057  0.0560  0.4416
  776SOL    HW1 3778   1.182   1.488   3.420  0.6865 -0.5151  0.8066
  776SOL    HW2 3779   1.231   1.407   3.303 -1.1041  0.6163 -0.7924
  777SOL     OW 3780   6.891   0.584   1.048  0.0030  0.2162 -0.2605
  777SOL    HW1 3781   6.806   0.549   1.022 -0.9572  2.1140  0.1661
  777SOL    HW2 3782   6.871   0.657   1.107  1.9424  0.4922  0.1566
  778SOL     OW 3783   3.019   0.687   5.290  0.4567 -0.5086  0.9151
  778SOL    HW1 3784   3.074   0.613   5.316  0.3616 -1.3693 -1.1329
  778SOL    HW2 3785   3.055   0.762   5.337  1.6024 -1.5438  1.7569
  779SOL     OW 3786   4.297   0.972   2.398 -0.0504 -0.6235  0.2807
  779SOL    HW1 3787   4.224   0.945   2.454 -0.1411 -0.0338  0.4561
  779SOL    HW2 3788   4.274   1.061   2.370  1.3589  0.2526  1.6920
  780SOL     OW 3789   4.610   3.591   4.802 -0.1857 -0.4161  0.0705
  780SOL    HW1 3790   4.672   3.645   4.850  1.4047 -2.4440  0.4581
  780SOL    HW2 3791   4.530   3.642   4.800  1.3735  2.2119 -0.1862
  781SOL     OW 3792   6.144   3.128   5.778  0.3941  0.2732  0.3255
  781SOL    HW1 3793   6.147   3.196   5.711 -0.9727  0.9112  0.8872
  781SOL    HW2 3794   6.156   3.175   5.861 -1.1461 -0.0665  0.7642
  782SOL     OW 3795   4.412   0.716   5.305 -0.1300  0.3059  0.5473
  782SOL    HW1 3796   4.500   0.743   5.329 -0.7153  1.9518  0.9846
  782SOL    HW2 3797   4.402   0.740   5.213  0.2866 -1.0772  0.1116
  783SOL     OW 3798   6.334   1.594   3.028  0.3229 -0.5982 -0.1107
  783SOL    HW1 3799   6.254   1.560   2.988 -0.9433  2.3618 -0.3327
  783SOL    HW2 3800   6.396   1.602   2.956  0.0665 -0.7973 -0.3544
  784SOL     OW 3801   4.427   5.910   4.598  0.5126  0.5070  0.2193
  784SOL    HW1 3802   4.421   5.829   4.548 -0.5214  0.4717  0.3734
  784SOL    HW2 3803   4.386   5.889   4.682  1.9456  0.6581  0.9726
  785SOL     OW 3804   4.566   6.710   4.348 -0.2557  0.1850  0.5448
  785SOL    HW1 3805   4.582   6.677   4.260 -2.6514 -0.9795  0.4590
  785SOL    HW2 3806   4.483   6.756   4.342 -0.0055  0.9016  2.0191
  786SOL     OW 3807   6.305   2.572   5.565 -1.1200  0.2182  0.0989
  786SOL    HW1 3808   6.216   2.602   5.583 -0.0638  2.0269  2.9630
  786SOL    HW2 3809   6.323   2.507   5.633 -0.5070 -0.8415 -1.0307
  787SOL     OW 3810   1.344   1.643   0.941  0.1489  0.1620  0.1569
  787SOL    HW1 3811   1.439   1.644   0.949  0.2005 -1.2248 -0.0391
  787SOL    HW2 3812   1.313   1.661   1.030  0.5310  2.7463 -0.1585
  788SOL     OW 3813   2.013   1.349   6.063  0.0364  0.2679 -0.0247
  788SOL    HW1 3814   2.043   1.394   5.984  2.3110 -0.1830  0.5128
  788SOL    HW2 3815   1.921   1.327   6.045 -0.2760  2.4930 -1.4535
  789SOL     OW 3816   3.275   5.142   3.922 -0.3107  0.3916  0.0410
  789SOL    HW1 3817   3.188   5.116   3.892  0.0712 -0.4584 -0.3640
  789SOL    HW2 3818   3.259   5.205   3.992 -1.2550 -0.4607  0.6027
  790SOL     OW 3819   0.922   4.529   1.161 -0.1165  0.2299  0.9909
  790SOL    HW1 3820   0.971   4.499   1.239 -0.3973  0.0160  1.0871
  790SOL    HW2 3821   0.831   4.512   1.183 -0.1135 -1.2112  0.0424
  791SOL     OW 3822   6.331   0.948   6.515  0.1460  0.9296 -0.2895
  791SOL    HW1 3823   6.294   0.907   6.437 -0.8260  1.7765 -0.2894
  791SOL    HW2 3824   6.417   0.906   6.526 -0.2336 -0.0924 -1.0780
  792SOL     OW 3825   5.111   6.743   2.059  0.0519  0.1032  0.3098
  792SOL    HW1 3826   5.140   6.653   2.075 -3.3071 -0.6976  3.1468
  792SOL    HW2 3827   5.033   6.733   2.004 -0.9785  1.1013  1.5199
  793SOL     OW 3828   1.304   3.850   3.439 -0.1891  0.0868  0.1580
  793SOL    HW1 3829   1.317   3.875   3.531  1.2594 -1.8864  0.5453
  793SOL    HW2 3830   1.209   3.860   3.425 -0.4632  0.2930  1.8977
  794SOL     OW 3831   5.954   2.292   1.736 -0.1887  0.6557  0.1932
  794SOL    HW1 3832   5.867   2.283   1.774  0.4382 -0.2736  1.5031
  794SOL    HW2 3833   5.985   2.203   1.724  0.5928  0.9764 -0.2485
  795SOL     OW 3834   6.638   2.155   0.186  0.0704 -0.2345 -0.1045
  795SOL    HW1 3835   6.601   2.081   0.233  0.3417  1.3569  2.8812
  795SOL    HW2 3836   6.633   2.130   0.093 -6.5243 -1.0090 -0.0067
  796SOL     OW 3837   6.306   3.947   3.468 -0.3729  0.2911  0.7812
  796SOL    HW1 3838   6.272   3.952   3.378 -1.2321 -1.3040  0.9854
  796SOL    HW2 3839   6.292   4.035   3.503 -2.4862  0.2658  0.1871
  797SOL     OW 3840   4.956   3.414   3.903  0.0024 -0.3627 -0.1030
  797SOL    HW1 3841   4.924   3.326   3.921 -2.1362  0.5642  0.9415
  797SOL    HW2 3842   5.011   3.436   3.979 -0.0754 -0.5236 -0.0000
  798SOL     OW 3843   4.201   4.885   5.120  0.2026  0.2661  0.2997
  798SOL    HW1 3844   4.264   4.956   5.124  0.2660  0.1784  0.8333
  798SOL    HW2 3845   4.149   4.904   5.041  0.3410  0.7968  0.3329
  799SOL     OW 3846   0.295   0.272   6.295  0.0766  0.4129 -0.0486
  799SOL    HW1 3847   0.237   0.286   6.370  0.4842  0.8094  0.1954
  799SOL    HW2 3848   0.382   0.296   6.327  0.3865 -0.2216 -0.4007
  800SOL     OW 3849   7.036   3.841   5.150  0.0908  0.1410  0.2133
  800SOL    HW1 3850   6.998   3.756   5.171  1.0386 -0.7668 -1.5528
  800SOL    HW2 3851   7.130   3.825   5.142  0.1852  1.1474 -1.0343
  801SOL     OW 3852   3.308   0.508   6.725 -0.2529  0.1575 -0.5532
  801SOL    HW1 3853   3.392   0.464   6.712 -1.4885 -2.5813  0.1833
  801SOL    HW2 3854   3.253   0.475   6.655 -0.9214  1.4531 -0.6574
  802SOL     OW 3855   5.547   1.753   0.710 -0.4706 -0.0664 -0.0018
  802SOL    HW1 3856   5.503   1.701   0.777 -1.1130  0.3265 -0.1109
  802SOL    HW2 3857   5.484   1.822   0.687  0.5815  1.1098  0.5419
  803SOL     OW 3858   5.421   1.603   6.092  0.2122  0.3528 -0.2262
  803SOL    HW1 3859   5.494   1.577   6.148  0.6179 -0.8035 -1.2280
  803SOL    HW2 3860   5.371   1.522   6.080 -0.2937  0.7569 -0.8903
  804SOL     OW 3861   6.791   2.482   1.496  0.0830 -0.1623  0.7144
  804SOL    HW1 3862   6.757   2.422   1.429  1.1548 -0.2348  0.2100
  804SOL    HW2 3863   6.752   2.566   1.475 -1.5587 -0.6912  1.5155
  805SOL     OW 3864   1.284   2.141   2.470  0.3286  0.4031 -0.7127
  805SOL    HW1 3865   1.306   2.225   2.511  1.3436  0.0410 -0.4795
  805SOL    HW2 3866   1.335   2.139   2.389 -2.5023  1.5969 -2.6929
  806SOL     OW 3867   0.532   4.433   4.708  0.1607 -0.3946 -0.4889
  806SOL    HW1 3868   0.441   4.425   4.735  0.4788  0.2348  0.8560
  806SOL    HW2 3869   0.566   4.343   4.712 -0.4295 -0.6619 -1.1828
  807SOL     OW 3870   1.699   4.337   0.918  0.2823 -0.3724  0.1553
  807SOL    HW1 3871   1.655   4.399   0.861 -1.0417  0.0166  1.5418
  807SOL    HW2 3872   1.793   4.354   0.904 -0.0242  0.4487 -1.0448
  808SOL     OW 3873   6.775   5.318   4.946  0.0016  0.6276  0.5325
  808SOL    HW1 3874   6.713   5.246   4.958 -2.5896  2.8378  1.2573
  808SOL    HW2 3875   6.793   5.349   5.034  1.8784  0.3188  0.2996
  809SOL     OW 3876   4.809   6.857   2.766 -0.2149 -0.3883 -0.1747
  809SOL    HW1 3877   4.756   6.881   2.842  1.3379  0.2429  0.7416
  809SOL    HW2 3878   4.865   6.786   2.797 -1.8504 -2.4972 -1.7069
  810SOL     OW 3879   6.058   1.938   6.803  0.3177 -0.4455  0.7245
  810SOL    HW1 3880   6.016   1.911   6.722  2.6262 -0.1919 -0.6498
  810SOL    HW2 3881   6.062   2.033   6.799  0.6704 -0.4433  0.9980
  811SOL     OW 3882   2.305   1.232   6.716 -0.0344  0.5942  0.0873
  811SOL    HW1 3883   2.211   1.226   6.697  0.3030  0.4504 -1.7065
  811SOL    HW2 3884   2.340   1.147   6.691  0.7015  0.9178 -0.0097
  812SOL     OW 3885   5.788   5.913   3.407  0.1767  0.4108  0.1528
  812SOL    HW1 3886   5.833   5.829   3.399  0.5258  0.4804  1.2424
  812SOL    HW2 3887   5.848   5.976   3.367 -0.6261  0.0000 -1.7990
  813SOL     OW 3888   2.393   3.348   0.207 -0.1418  0.3242 -0.5789
  813SOL    HW1 3889   2.339   3.270   0.218 -1.5403  1.3315 -0.0466
  813SOL    HW2 3890   2.403   3.383   0.295 -0.2035  1.1847 -0.9016
  814SOL     OW 3891   5.223   6.470   3.630 -0.0269  0.5513  0.1244
  814SOL    HW1 3892   5.186   6.539   3.686  1.3468  0.2522  1.4992
  814SOL    HW2 3893   5.167   6.395   3.644  0.6736  0.2760  1.7112
  815SOL     OW 3894   5.514   2.433   6.221  0.4051  0.2474  0.2933
  815SOL    HW1 3895   5.534   2.432   6.127 -1.1621 -0.7710 -0.0706
  815SOL    HW2 3896   5.421   2.453   6.226  0.4188  0.0762  1.6207
  816SOL     OW 3897   5.789   3.789   0.762 -0.4622  0.7440 -0.0266
  816SOL    HW1 3898   5.722   3.852   0.736 -1.0468  0.7400  1.3661
  816SOL    HW2 3899   5.744   3.729   0.821  1.0698  1.7641  2.3815
  817SOL     OW 3900   3.865   5.551   2.178 -0.2204  0.3848  0.0473
  817SOL    HW1 3901   3.793   5.525   2.121 -0.0984  1.4651 -0.6308
  817SOL    HW2 3902   3.831   5.626   2.227  0.4494  0.9483 -0.3248
  818SOL     OW 3903   0.787   0.218   3.389  0.1649  0.3927  0.7787
  818SOL    HW1 3904   0.844   0.292   3.369 -0.2657  0.1732 -1.4412
  818SOL    HW2 3905   0.699   0.256   3.395  0.2584  0.4444  2.4143
  819SOL     OW 3906   2.898   1.595   2.118  0.3930  0.7981 -0.2993
  819SOL    HW1 3907   2.821   1.652   2.116 -0.2607  0.0996  1.7205
  819SOL    HW2 3908   2.934   1.598   2.029 -2.0678  1.0114 -1.3612
  820SOL     OW 3909   4.515   5.626   0.108  0.2552  0.0008 -0.1429
  820SOL    HW1 3910   4.472   5.567   0.169  1.0098  2.1469  2.6801
  820SOL    HW2 3911   4.447   5.688   0.081 -0.0786 -0.9424 -1.6214
  821SOL     OW 3912   4.015   6.562   0.521 -0.0002 -0.8931  0.8736
  821SOL    HW1 3913   4.023   6.488   0.582 -1.2906 -1.3209  0.5461
  821SOL    HW2 3914   3.921   6.572   0.507  0.2297 -2.0953 -2.5828
  822SOL     OW 3915   2.121   2.762   6.527 -0.1634  0.0855 -0.2035
  822SOL    HW1 3916   2.046   2.704   6.512 -0.5400  0.5648 -0.2205
  822SOL    HW2 3917   2.165   2.766   6.443  0.1732 -0.5911 -0.0688
  823SOL     OW 3918   6.526   5.589   2.492  0.0820 -0.1836  0.1375
  823SOL    HW1 3919   6.590   5.659   2.498 -1.1167  0.8867  0.8930
  823SOL    HW2 3920   6.571   5.519   2.445  1.4504  0.9173 -0.2420
  824SOL     OW 3921   1.519   6.087   4.508  0.3492  0.0866  0.6406
  824SOL    HW1 3922   1.465   6.162   4.485  1.4351  0.5657 -0.4683
  824SOL    HW2 3923   1.608   6.115   4.488  0.7062 -1.7883 -0.6418
  825SOL     OW 3924   2.359   0.141   3.566  0.1318 -0.2245  0.5997
  825SOL    HW1 3925   2.296   0.069   3.561  2.1139 -2.0382 -0.1497
  825SOL    HW2 3926   2.432   0.106   3.618  1.6867  0.7699 -0.7909
  826SOL     OW 3927   3.343   2.758   0.189 -0.0884 -0.5911 -0.6264
  826SOL    HW1 3928   3.406   2.821   0.156 -0.2615  1.5334  2.6013
  826SOL    HW2 3929   3.396   2.691   0.232  0.0789  0.0888  0.2697
  827SOL     OW 3930   5.760   6.312   5.672 -0.1206  0.0115  0.2705
  827SOL    HW1 3931   5.763   6.225   5.711 -0.8491  0.4304  1.2889
  827SOL    HW2 3932   5.760   6.295   5.578  1.3035 -1.0277  0.4123
  828SOL     OW 3933   3.995   0.265   0.315  0.3714 -0.1495  0.0452
  828SOL    HW1 3934   3.911   0.247   0.273  0.8789  0.2090 -1.1745
  828SOL    HW2 3935   4.051   0.294   0.244  1.1920  0.7739  1.0399
  829SOL     OW 3936   2.008   3.991   5.650  0.3477  0.4347 -0.0116
  829SOL    HW1 3937   1.984   3.932   5.578  1.1008  0.5669 -0.3814
  829SOL    HW2 3938   2.042   4.069   5.606 -0.4311  1.0692  0.4742
  830SOL     OW 3939   6.925   0.808   1.196  0.1049  0.5391 -0.3841
  830SOL    HW1 3940   6.850   0.788   1.252 -0.3535 -0.5553 -1.3555
  830SOL    HW2 3941   6.918   0.902   1.179  0.7837  1.1162  2.1151
  831SOL     OW 3942   3.703   5.936   5.441 -0.3882 -0.3519  0.3523
  831SOL    HW1 3943   3.717   6.024   5.408  0.8038 -1.1320 -1.3791
  831SOL    HW2 3944   3.613   5.914   5.416 -0.5555  0.2188  0.4508
  832SOL     OW 3945   5.388   0.159   1.339 -0.0932  0.5928 -0.4843
  832SOL    HW1 3946   5.399   0.214   1.262 -0.1676  1.9056  0.3929
  832SOL    HW2 3947   5.405   0.070   1.309 -2.6242  0.7028 -2.5926
  833SOL     OW 3948   6.568   4.464   2.090  0.4681 -0.3851  0.3239
  833SOL    HW1 3949   6.604   4.532   2.033  2.3344 -1.7203 -0.1828
  833SOL    HW2 3950   6.474   4.465   2.072  0.4255  2.0632  0.3763
  834SOL     OW 3951   2.749   0.087   5.600 -0.0574 -0.3556 -0.3535
  834SOL    HW1 3952   2.711   0.174   5.587 -2.2552 -1.0035  1.1517
  834SOL    HW2 3953   2.843   0.099   5.582 -0.3801  2.1635 -0.7663
  835SOL     OW 3954   0.410   3.029   3.423 -0.1472 -0.3118  0.1978
  835SOL    HW1 3955   0.483   3.060   3.476 -0.9116 -0.8585  1.6356
  835SOL    HW2 3956   0.386   3.104   3.368 -0.3087  0.8157  1.7427
  836SOL     OW 3957   4.705   3.123   4.572  0.5493  0.1325 -0.0833
  836SOL    HW1 3958   4.723   3.206   4.527 -1.1912 -1.3540 -3.9722
  836SOL    HW2 3959   4.611   3.126   4.589  0.5794 -0.8052  0.2611
  837SOL     OW 3960   2.500   0.473   4.038 -0.5583  0.0574 -0.1910
  837SOL    HW1 3961   2.562   0.546   4.034 -1.6801  1.2390  2.1044
  837SOL    HW2 3962   2.415   0.514   4.054 -1.2581 -1.7360  1.0326
  838SOL     OW 3963   1.495   0.361   6.413  0.6464  0.2004  0.0530
  838SOL    HW1 3964   1.567   0.311   6.376  0.6289  0.6993 -0.6613
  838SOL    HW2 3965   1.416   0.318   6.381  0.6302  0.3417 -0.0982
  839SOL     OW 3966   2.742   0.777   5.228  0.0510 -0.3001  0.3890
  839SOL    HW1 3967   2.813   0.758   5.290 -0.5194 -2.1745  0.5150
  839SOL    HW2 3968   2.676   0.710   5.245 -0.5988 -0.2034 -1.5187
  840SOL     OW 3969   4.611   3.323   5.191 -0.6008 -0.2401 -0.0276
  840SOL    HW1 3970   4.528   3.282   5.215 -0.6497 -0.8606 -1.1935
  840SOL    HW2 3971   4.611   3.406   5.239 -1.4924 -0.6261  0.6643
  841SOL     OW 3972   5.634   0.182   2.988  0.3685  0.2907  0.1594
  841SOL    HW1 3973   5.619   0.259   3.042  1.3191 -1.8340  3.8243
  841SOL    HW2 3974   5.706   0.207   2.929 -1.4350  3.0598 -1.0712
  842SOL     OW 3975   0.550   6.505   3.346  0.1605  0.2219  0.0613
  842SOL    HW1 3976   0.477   6.465   3.298  0.6355 -0.6260  0.0214
  842SOL    HW2 3977   0.580   6.575   3.289 -0.4604  0.4083 -0.0406
  843SOL     OW 3978   3.764   6.244   3.135 -0.0706 -0.0942  0.6013
  843SOL    HW1 3979   3.748   6.158   3.175 -1.8527 -0.1048 -0.0208
  843SOL    HW2 3980   3.853   6.267   3.162  0.9644 -2.6983 -0.2236
  844SOL     OW 3981   0.905   0.237   4.886 -0.1772  0.8841 -0.6984
  844SOL    HW1 3982   0.926   0.254   4.794 -0.1250  0.2306 -0.8114
  844SOL    HW2 3983   0.811   0.254   4.893  0.1945  3.0873 -0.3616
  845SOL     OW 3984   1.487   7.071   0.711  0.3870 -0.1338  0.1047
  845SOL    HW1 3985   1.419   7.028   0.764  1.6661 -1.0354  1.0773
  845SOL    HW2 3986   1.481   7.030   0.625 -0.0082 -0.5005  0.3068
  846SOL     OW 3987   4.352   3.162   1.956 -0.1408 -0.5073  1.0706
  846SOL    HW1 3988   4.387   3.105   2.024 -0.6004 -0.5543  1.2770
  846SOL    HW2 3989   4.262   3.130   1.943 -0.4980  0.3354  1.3831
  847SOL     OW 3990   6.248   2.142   1.171  0.1499 -0.0098 -0.0284
  847SOL    HW1 3991   6.189   2.089   1.223 -0.7019  0.3297 -0.6136
  847SOL    HW2 3992   6.197   2.165   1.093  0.4699  1.6603  0.2029
  848SOL     OW 3993   3.954   6.810   2.736 -0.3944  0.2040  0.3380
  848SOL    HW1 3994   3.974   6.720   2.710 -0.6065 -0.2973  1.8173
  848SOL    HW2 3995   3.925   6.853   2.656  1.0683 -0.6461 -0.6781
  849SOL     OW 3996   5.891   4.857   6.502 -0.2985  0.1903 -0.7509
  849SOL    HW1 3997   5.859   4.767   6.500 -1.0366  0.4440 -0.7780
  849SOL    HW2 3998   5.966   4.855   6.562  0.0353 -0.5421 -1.1793
  850SOL     OW 3999   3.288   5.999   6.867 -0.0393 -0.5008  0.0503
  850SOL    HW1 4000   3.382   6.006   6.883  0.1707 -1.2435 -0.7910
  850SOL    HW2 4001   3.271   6.057   6.793 -0.3869  0.1999  0.6614
  851SOL     OW 4002   5.930   3.810   5.097 -0.5020  0.0686  0.3614
  851SOL    HW1 4003   5.885   3.729   5.118 -1.6233  0.6122  0.1474
  851SOL    HW2 4004   5.936   3.856   5.181 -0.3901  0.0232  0.3790
  852SOL     OW 4005   6.945   6.987   5.963 -0.3358  0.4539  0.0268
  852SOL    HW1 4006   6.888   6.978   5.887 -1.2489  0.5359  0.6779
  852SOL    HW2 4007   6.979   6.899   5.980  1.7524  0.8136 -1.8475
  853SOL     OW 4008   5.176   1.905   5.300 -0.1192 -0.2499 -0.2039
  853SOL    HW1 4009   5.215   1.849   5.233  0.7730  0.8798 -0.6635
  853SOL    HW2 4010   5.247   1.917   5.364  0.1715  1.4561 -0.8163
  854SOL     OW 4011   3.726   0.656   2.846 -0.5040  0.0135  0.3065
  854SOL    HW1 4012   3.638   0.686   2.822  0.1969  0.4820 -2.0018
  854SOL    HW2 4013   3.721   0.561   2.840 -0.9904  0.0079  0.7303
  855SOL     OW 4014   1.937   1.303   5.606  0.0390 -0.0817 -0.0533
  855SOL    HW1 4015   2.008   1.357   5.571  1.0078 -1.8390 -0.9387
  855SOL    HW2 4016   1.858   1.337   5.564  0.6162  0.5987 -0.6239
  856SOL     OW 4017   6.447   6.105   6.644  0.3888  0.5873  0.3101
  856SOL    HW1 4018   6.370   6.090   6.589  0.4540 -0.5546  0.4973
  856SOL    HW2 4019   6.505   6.159   6.590  0.5055 -0.6111 -0.8189
  857SOL     OW 4020   0.999   1.508   2.550  0.5533  0.5684  0.2470
  857SOL    HW1 4021   1.063   1.482   2.617 -0.3831  0.1512  0.9967
  857SOL    HW2 4022   0.938   1.565   2.595 -1.1325 -1.1272  0.2488
  858SOL     OW 4023   4.349   3.817   1.994  0.3345 -0.3698  0.2322
  858SOL    HW1 4024   4.332   3.745   2.054  1.5803 -0.8594  0.0175
  858SOL    HW2 4025   4.387   3.776   1.916 -0.3977  0.3541 -0.5417
  859SOL     OW 4026   5.196   2.968   4.895 -0.0861  0.1305  0.2524
  859SOL    HW1 4027   5.271   3.027   4.898  1.1694 -1.3062 -1.0018
  859SOL    HW2 4028   5.125   3.020   4.857  0.5352  1.2429  0.5922
  860SOL     OW 4029   1.349   2.735   4.143 -0.2361  0.6293  0.7100
  860SOL    HW1 4030   1.422   2.713   4.200  2.2128  3.1369 -1.2017
  860SOL    HW2 4031   1.389   2.778   4.067 -3.4370 -0.6482 -1.9859
  861SOL     OW 4032   4.911   5.737   4.985  0.0489  0.0768 -0.6056
  861SOL    HW1 4033   4.833   5.728   4.931  1.2170  1.1457 -2.5860
  861SOL    HW2 4034   4.983   5.745   4.922  1.5442  0.9609  1.1249
  862SOL     OW 4035   2.934   4.102   6.017  0.4685 -0.1818 -0.1204
  862SOL    HW1 4036   2.961   4.080   6.106  0.9365 -0.8549 -0.4138
  862SOL    HW2 4037   3.002   4.061   5.961  0.4464  0.6299 -0.7579
  863SOL     OW 4038   3.693   5.728   5.137 -0.2079  0.2443 -0.2999
  863SOL    HW1 4039   3.694   5.660   5.203 -1.3383 -0.9120 -1.4046
  863SOL    HW2 4040   3.723   5.685   5.057 -0.5406  1.1347 -0.9235
  864SOL     OW 4041   6.682   1.087   0.237  0.5950  0.2208 -0.0830
  864SOL    HW1 4042   6.619   1.074   0.309  0.0448  2.5944 -0.0497
  864SOL    HW2 4043   6.762   1.044   0.267 -0.2915 -0.8039  0.9255
  865SOL     OW 4044   1.898   0.804   2.876  0.0665  0.3987  0.0734
  865SOL    HW1 4045   1.972   0.743   2.879  0.4197  0.7795 -0.7979
  865SOL    HW2 4046   1.820   0.748   2.879  0.3847 -0.1345 -1.2022
  866SOL     OW 4047   2.693   1.607   3.036 -0.4784 -0.3504  0.5782
  866SOL    HW1 4048   2.721   1.565   2.955 -1.4306  1.0998 -0.5578
  866SOL    HW2 4049   2.606   1.574   3.053 -1.7908  1.9680 -1.0492
  867SOL     OW 4050   2.625   0.330   5.849  1.0654 -0.3543 -0.0056
  867SOL    HW1 4051   2.573   0.391   5.796  0.4173  0.5936  1.6309
  867SOL    HW2 4052   2.584   0.245   5.834  0.2271  0.0706 -0.2124
  868SOL     OW 4053   1.247   0.694   6.196  0.5357  0.5973  1.1678
  868SOL    HW1 4054   1.211   0.709   6.109  0.3429 -2.2795  0.6454
  868SOL    HW2 4055   1.191   0.745   6.254 -1.0130  0.4973 -0.1577
  869SOL     OW 4056   3.162   2.531   6.567 -0.3136 -0.1903 -0.3438
  869SOL    HW1 4057   3.192   2.541   6.477  4.3488  1.4026  1.0838
  869SOL    HW2 4058   3.192   2.444   6.593 -0.6751 -0.2147  0.0071
  870SOL     OW 4059   7.109   1.722   3.109  0.4518 -0.1800 -0.5047
  870SOL    HW1 4060   7.182   1.660   3.106  1.0074  0.4449 -0.2493
  870SOL    HW2 4061   7.037   1.678   3.064  0.3112 -1.6868  1.0841
  871SOL     OW 4062   0.234   5.498   0.669 -0.5532 -0.2898  0.4536
  871SOL    HW1 4063   0.152   5.528   0.630 -0.5042  0.5700  1.0005
  871SOL    HW2 4064   0.301   5.521   0.605 -0.4975  0.9282  0.9358
  872SOL     OW 4065   7.030   1.629   0.324  0.1292  0.0292  0.0103
  872SOL    HW1 4066   6.988   1.545   0.305  0.5584 -0.6070  1.6516
  872SOL    HW2 4067   6.959   1.692   0.325 -0.0739 -0.0735 -2.2945
  873SOL     OW 4068   5.263   6.573   6.580 -0.2600  0.5914  0.1838
  873SOL    HW1 4069   5.329   6.631   6.618  3.3448 -3.4086  0.8692
  873SOL    HW2 4070   5.298   6.551   6.494 -0.6981 -1.5115  0.4970
  874SOL     OW 4071   6.396   0.328   5.110 -0.0494  0.0593  0.0121
  874SOL    HW1 4072   6.401   0.422   5.095 -0.4711  0.2766  1.1359
  874SOL    HW2 4073   6.310   0.314   5.149  0.6988 -0.5147  1.5490
  875SOL     OW 4074   0.991   6.845   1.697 -0.1343  0.4519 -0.0121
  875SOL    HW1 4075   1.084   6.826   1.707  0.3343  1.4229 -2.0243
  875SOL    HW2 4076   0.987   6.941   1.687 -1.6179  0.7222  2.3073
  876SOL     OW 4077   1.171   1.979   4.653 -0.3929 -0.2692 -0.0875
  876SOL    HW1 4078   1.118   1.984   4.573 -1.1437 -1.3592  0.3189
  876SOL    HW2 4079   1.261   1.990   4.623 -0.7284  0.0940 -0.9881
  877SOL     OW 4080   5.738   5.072   5.905 -0.2506  0.5310  0.1497
  877SOL    HW1 4081   5.706   5.003   5.848 -0.1537  0.8199 -0.2622
  877SOL    HW2 4082   5.747   5.031   5.990  1.2705 -0.3892 -0.4110
  878SOL     OW 4083   4.357   2.220   2.910 -0.1205  0.3993 -0.1170
  878SOL    HW1 4084   4.285   2.281   2.897  0.6199  1.3482  0.1323
  878SOL    HW2 4085   4.423   2.247   2.846 -0.1386 -0.7213 -0.6296
  879SOL     OW 4086   7.101   0.558   5.552 -0.1310 -0.3370 -0.3179
  879SOL    HW1 4087   7.160   0.537   5.480  1.4579 -1.1559  1.1598
  879SOL    HW2 4088   7.113   0.652   5.566  1.7924 -0.6971  0.7360
  880SOL     OW 4089   0.095   5.559   6.290  0.3064 -0.2731  0.3591
  880SOL    HW1 4090   0.126   5.504   6.362  1.3766 -0.0546  0.0743
  880SOL    HW2 4091   0.172   5.574   6.236 -0.6061 -0.9278 -1.1768
  881SOL     OW 4092   0.058   4.212   4.966 -0.1920  0.3433  1.0212
  881SOL    HW1 4093   0.006   4.132   4.959 -0.7689  0.7023  1.1748
  881SOL    HW2 4094   0.134   4.186   5.018 -0.2204 -0.1785  0.8112
  882SOL     OW 4095   6.523   2.555   6.986 -0.5373  0.2381 -0.2494
  882SOL    HW1 4096   6.456   2.508   7.036 -0.7964  1.7477  0.9148
  882SOL    HW2 4097   6.592   2.490   6.970 -0.1057 -0.1987  2.7540
  883SOL     OW 4098   0.624   5.061   3.306 -0.2214 -0.0377  0.1354
  883SOL    HW1 4099   0.673   5.038   3.226 -1.4746  0.6036 -0.8591
  883SOL    HW2 4100   0.618   4.979   3.355 -1.0896 -0.9368 -1.3877
  884SOL     OW 4101   6.068   4.354   3.130 -0.2691  0.1946  0.2319
  884SOL    HW1 4102   6.153   4.309   3.132 -0.2299  0.1837 -1.0102
  884SOL    HW2 4103   6.021   4.314   3.057 -0.0841  2.4024 -1.1705
  885SOL     OW 4104   0.007   3.462   1.299  0.9547  0.0967 -0.8241
  885SOL    HW1 4105   0.079   3.515   1.264  1.4778  1.3779  1.8819
  885SOL    HW2 4106   0.051   3.396   1.352  0.2256  1.4026  1.5400
  886SOL     OW 4107   6.128   1.458   4.953 -0.1507 -0.0069 -0.7527
  886SOL    HW1 4108   6.162   1.445   5.041  2.8071  3.2260 -1.2204
  886SOL    HW2 4109   6.044   1.502   4.966  0.1363  0.2110  0.4639
  887SOL     OW 4110   2.966   0.152   3.077  0.0284  0.2228  0.4900
  887SOL    HW1 4111   2.902   0.104   3.129  1.4715  0.8532  3.0189
  887SOL    HW2 4112   2.967   0.240   3.116  0.5934  1.0095 -1.1842
  888SOL     OW 4113   3.694   0.907   2.658 -1.2495  0.5068 -0.1581
  888SOL    HW1 4114   3.767   0.884   2.715 -1.4811 -1.4043 -0.5332
  888SOL    HW2 4115   3.734   0.944   2.580 -0.5668 -1.1351 -0.6442
  889SOL     OW 4116   4.741   4.539   3.501  0.9136  0.0171 -0.0464
  889SOL    HW1 4117   4.748   4.563   3.409  0.0211 -0.1107 -0.1568
  889SOL    HW2 4118   4.654   4.569   3.527  0.8404 -0.6671  0.5394
  890SOL     OW 4119   1.852   4.889   5.358 -0.1353 -0.1598  0.1088
  890SOL    HW1 4120   1.832   4.881   5.451 -0.9790 -0.7207 -0.1118
  890SOL    HW2 4121   1.767   4.898   5.315  0.0610 -2.1404 -0.8195
  891SOL     OW 4122   3.297   0.274   0.803  0.2330 -0.0376 -0.3244
  891SOL    HW1 4123   3.322   0.359   0.769  0.6049 -0.9635 -2.5579
  891SOL    HW2 4124   3.203   0.281   0.819  0.3187  0.8656 -0.1742
  892SOL     OW 4125   6.361   0.754   1.975 -0.4878  0.0636  0.5178
  892SOL    HW1 4126   6.412   0.715   1.905 -0.6012 -1.1264  1.0717
  892SOL    HW2 4127   6.273   0.720   1.963 -1.4293  2.7200 -0.9024
  893SOL     OW 4128   6.639   3.861   3.219 -0.0472  0.6158 -0.3330
  893SOL    HW1 4129   6.580   3.816   3.280  0.1447  0.2355 -0.4262
  893SOL    HW2 4130   6.664   3.941   3.265  2.1436 -0.8417  1.2319
  894SOL     OW 4131   3.405   7.083   1.469 -0.4873 -0.0790 -0.2215
  894SOL    HW1 4132   3.356   7.019   1.522 -1.5531  1.0210  0.1620
  894SOL    HW2 4133   3.353   7.163   1.475  0.0149  0.4083 -1.9534
  895SOL     OW 4134   3.246   3.845   1.602 -0.0088 -0.6166  0.1610
  895SOL    HW1 4135   3.272   3.775   1.542  0.7700 -0.3743  0.2015
  895SOL    HW2 4136   3.154   3.829   1.619 -0.1827 -0.8433 -0.9033
  896SOL     OW 4137   0.150   0.758   5.395 -0.0509  0.0509 -0.3577
  896SOL    HW1 4138   0.164   0.751   5.300  2.0712  0.5474 -0.1269
  896SOL    HW2 4139   0.237   0.747   5.433 -0.7643  0.4894  1.5104
  897SOL     OW 4140   2.986   3.311   1.716 -0.3107 -0.2597  0.6276
  897SOL    HW1 4141   2.897   3.330   1.688 -0.4204  0.1965  1.2523
  897SOL    HW2 4142   3.013   3.236   1.663 -0.1975  1.0506 -1.2454
  898SOL     OW 4143   2.173   0.988   3.366 -0.1489  0.2330 -0.0013
  898SOL    HW1 4144   2.140   0.915   3.314 -1.6663  1.3808 -0.7211
  898SOL    HW2 4145   2.212   0.946   3.443  2.2960 -1.5203 -2.0266
  899SOL     OW 4146   3.457   2.092   2.684 -0.0774  0.4368 -0.2724
  899SOL    HW1 4147   3.442   2.141   2.603 -0.8513  0.1630 -0.3053
  899SOL    HW2 4148   3.546   2.057   2.675 -1.0923 -1.9004 -2.2698
  900SOL     OW 4149   5.784   5.442   4.092 -0.3524  0.8938 -0.2495
  900SOL    HW1 4150   5.692   5.442   4.117 -0.0502  1.1115  0.8983
  900SOL    HW2 4151   5.830   5.480   4.167  0.9925 -1.7255  0.3824
  901SOL     OW 4152   6.688   1.981   3.233 -0.1369  0.8215  0.1291
  901SOL    HW1 4153   6.745   1.965   3.308 -1.6871  1.6045  1.5588
  901SOL    HW2 4154   6.747   1.992   3.159  1.3864 -3.6534  0.3807
  902SOL     OW 4155   1.588   4.020   5.152  0.0168 -0.1823 -0.1038
  902SOL    HW1 4156   1.624   3.970   5.078 -1.8910 -1.8695 -0.0017
  902SOL    HW2 4157   1.535   4.088   5.111 -1.1367 -1.1894 -0.3661
  903SOL     OW 4158   6.174   3.326   5.584  0.7937  0.4026  0.0725
  903SOL    HW1 4159   6.254   3.335   5.532 -1.0807  1.2476 -2.9280
  903SOL    HW2 4160   6.165   3.411   5.628  0.9482  0.7501 -0.5510
  904SOL     OW 4161   4.174   2.844   0.972  0.4203  0.5976  0.6552
  904SOL    HW1 4162   4.145   2.762   1.012 -1.3420  0.8225 -0.0979
  904SOL    HW2 4163   4.131   2.845   0.887 -0.1241  2.6205  0.9211
  905SOL     OW 4164   0.405   4.527   3.930 -0.2907 -0.0611  0.1739
  905SOL    HW1 4165   0.453   4.453   3.967  1.0203  0.2104 -0.8951
  905SOL    HW2 4166   0.453   4.604   3.960 -0.5885  0.2604 -0.1693
  906SOL     OW 4167   1.796   4.563   2.941 -0.0494 -0.4022  0.0499
  906SOL    HW1 4168   1.809   4.615   3.020 -1.3607 -1.6034  1.1051
  906SOL    HW2 4169   1.843   4.481   2.957  0.9962 -0.0627 -1.1005
  907SOL     OW 4170   7.072   6.473   0.671 -0.2813 -0.5610 -0.1124
  907SOL    HW1 4171   7.034   6.522   0.744  0.5301 -0.4862  0.2686
  907SOL    HW2 4172   7.121   6.538   0.622 -1.7673 -0.3678 -1.4152
  908SOL     OW 4173   6.455   5.387   7.124 -0.0084 -0.4979  0.0296
  908SOL    HW1 4174   6.494   5.358   7.206  0.4302 -1.8882 -0.6385
  908SOL    HW2 4175   6.510   5.349   7.056  0.5686  1.9113 -0.9516
  909SOL     OW 4176   4.492   2.605   0.656  0.7602 -0.6942 -0.2144
  909SOL    HW1 4177   4.472   2.659   0.732 -0.8802  0.1856 -1.2346
  909SOL    HW2 4178   4.556   2.656   0.606 -1.2904  0.7356 -1.5285
  910SOL     OW 4179   1.038   4.740   4.302  0.3089  0.2897 -0.5318
  910SOL    HW1 4180   1.079   4.660   4.336  0.8776  0.9707  0.4269
  910SOL    HW2 4181   0.994   4.779   4.377 -1.2314  0.1402 -1.3146
  911SOL     OW 4182   1.835   0.338   7.041  0.3656  0.0614 -0.1483
  911SOL    HW1 4183   1.783   0.337   7.121  0.4665  1.6921 -0.0349
  911SOL    HW2 4184   1.784   0.393   6.980  1.4525  0.8620 -0.3660
  912SOL     OW 4185   1.214   4.720   6.634 -0.1379  0.1318  0.9163
  912SOL    HW1 4186   1.261   4.643   6.600 -0.9124 -0.4061  1.0510
  912SOL    HW2 4187   1.271   4.794   6.610  0.4442 -0.4406  0.4645
  913SOL     OW 4188   1.425   6.248   0.034  0.3864  0.1736  0.2146
  913SOL    HW1 4189   1.411   6.292   0.117 -0.8487  0.3534 -0.0747
  913SOL    HW2 4190   1.367   6.172   0.036  1.7261 -0.8981  0.2709
  914SOL     OW 4191   1.889   2.393   3.572  0.1936 -0.0910  0.1102
  914SOL    HW1 4192   1.870   2.305   3.537 -1.7635 -0.1372  1.0988
  914SOL    HW2 4193   1.917   2.377   3.662  2.6369  0.1748 -0.5524
  915SOL     OW 4194   2.013   2.867   1.909  0.2190 -0.2082  0.0140
  915SOL    HW1 4195   1.918   2.868   1.911  0.1733 -1.1786 -0.7429
  915SOL    HW2 4196   2.039   2.888   1.998 -0.7097 -0.1524  0.2819
  916SOL     OW 4197   1.839   6.946   3.326 -0.1943  0.3252  0.1402
  916SOL    HW1 4198   1.901   6.932   3.398  1.4100  1.1507 -1.0113
  916SOL    HW2 4199   1.857   7.035   3.296  0.7411 -0.7011 -2.6577
  917SOL     OW 4200   3.643   3.207   7.131  0.0536 -0.1849 -0.1331
  917SOL    HW1 4201   3.704   3.216   7.058 -0.4068  0.3633 -0.4550
  917SOL    HW2 4202   3.636   3.295   7.167 -0.1294 -0.3524  0.2481
  918SOL     OW 4203   3.839   1.648   5.574 -0.1065  0.1234  0.0453
  918SOL    HW1 4204   3.799   1.731   5.546 -0.5474 -0.0214  0.2253
  918SOL    HW2 4205   3.779   1.581   5.541  0.5554 -0.1573 -0.6035
  919SOL     OW 4206   1.202   4.155   0.011 -0.0417 -0.1596 -0.2839
  919SOL    HW1 4207   1.231   4.166  -0.080  0.3932  1.8491  0.0503
  919SOL    HW2 4208   1.184   4.062   0.019 -0.0943 -0.3903 -2.4359
  920SOL     OW 4209   3.493   2.994   4.161 -0.1188  0.4141  0.5096
  920SOL    HW1 4210   3.532   2.924   4.213  0.3603  1.8004  2.1229
  920SOL    HW2 4211   3.424   3.029   4.217 -1.4090  0.2574 -0.9033
  921SOL     OW 4212   2.503   6.966   0.250  0.2179 -0.2892  0.4804
  921SOL    HW1 4213   2.444   7.018   0.304 -0.6558  0.1843 -0.8889
  921SOL    HW2 4214   2.470   6.876   0.259  0.7880 -0.4096  1.6134
  922SOL     OW 4215   2.196   5.819   1.780 -0.5755 -0.3438  0.4526
  922SOL    HW1 4216   2.108   5.782   1.788 -0.1302 -1.2736  1.1834
  922SOL    HW2 4217   2.195   5.895   1.839 -1.3305  0.5555 -0.6684
  923SOL     OW 4218   0.462   6.588   0.621 -0.3874  0.0016 -0.3057
  923SOL    HW1 4219   0.481   6.642   0.697  0.1497  0.6171 -0.8574
  923SOL    HW2 4220   0.528   6.519   0.623 -0.6952 -0.2895  0.0619
  924SOL     OW 4221   1.000   6.869   6.327  0.0912 -0.5130  0.2503
  924SOL    HW1 4222   0.942   6.881   6.402 -1.6661  1.6780 -1.2861
  924SOL    HW2 4223   1.084   6.906   6.354 -0.9168  1.5571  0.7427
  925SOL     OW 4224   0.192   0.862   1.252 -0.1738 -0.0143 -0.1748
  925SOL    HW1 4225   0.125   0.803   1.288 -2.0648  1.0111 -1.8351
  925SOL    HW2 4226   0.229   0.813   1.178  0.1190 -0.1487  0.0616
  926SOL     OW 4227   5.850   0.431   0.789 -0.2179  0.0162  0.1499
  926SOL    HW1 4228   5.803   0.512   0.809  1.5677  1.1812 -0.1493
  926SOL    HW2 4229   5.939   0.460   0.766  1.0262 -2.1606  1.8825
  927SOL     OW 4230   0.810   4.058   7.118 -0.0374  0.1666 -0.6354
  927SOL    HW1 4231   0.838   4.040   7.207  1.0079 -1.4786 -1.2436
  927SOL    HW2 4232   0.858   3.995   7.064 -1.1809  0.6206 -2.2877
  928SOL     OW 4233   2.326   2.948   1.433  0.2627 -0.3714 -0.0193
  928SOL    HW1 4234   2.330   2.857   1.463 -0.1724 -0.5894 -0.6107
  928SOL    HW2 4235   2.402   2.957   1.375  1.5680  0.2751  1.6864
  929SOL     OW 4236   0.599   2.764   1.522 -0.3975 -0.3687 -0.7203
  929SOL    HW1 4237   0.684   2.737   1.487  0.3339  0.9490 -0.0453
  929SOL    HW2 4238   0.621   2.819   1.597 -1.7960  1.3667 -1.5161
  930SOL     OW 4239   6.821   7.099   4.812  0.1294 -0.7749 -0.0036
  930SOL    HW1 4240   6.754   7.139   4.757  1.0444  1.0539  0.1257
  930SOL    HW2 4241   6.790   7.114   4.902 -0.4126 -2.0430  0.0481
  931SOL     OW 4242   1.822   3.858   6.677  0.1526 -0.3079  0.1674
  931SOL    HW1 4243   1.903   3.880   6.723  0.6642 -0.7816 -0.4882
  931SOL    HW2 4244   1.849   3.846   6.586 -0.9660  1.3356 -0.4189
  932SOL     OW 4245   6.354   3.967   6.624  0.1295 -0.5267  0.4202
  932SOL    HW1 4246   6.289   4.035   6.641  0.0164 -0.6196  0.3611
  932SOL    HW2 4247   6.322   3.923   6.545  0.8005  0.0924 -0.2115
  933SOL     OW 4248   4.256   3.908   1.452 -0.5332  0.2779  0.5104
  933SOL    HW1 4249   4.333   3.925   1.508 -0.3893  1.2979  0.0291
  933SOL    HW2 4250   4.188   3.882   1.514 -0.5528  1.9690  1.2663
  934SOL     OW 4251   0.875   1.135   6.494  0.0429  0.3265  0.3223
  934SOL    HW1 4252   0.842   1.198   6.429 -1.4176 -1.0977 -0.3895
  934SOL    HW2 4253   0.917   1.190   6.561 -1.7359  2.1171  0.0784
  935SOL     OW 4254   0.881   1.197   0.304  0.3257  0.0088  0.5489
  935SOL    HW1 4255   0.907   1.277   0.348  0.1654 -0.5659  1.7106
  935SOL    HW2 4256   0.918   1.126   0.357  2.3662 -0.7073 -1.6044
  936SOL     OW 4257   7.089   5.411   1.627 -0.1744  0.4505 -0.1360
  936SOL    HW1 4258   7.066   5.350   1.697 -1.8657  0.9473 -0.2098
  936SOL    HW2 4259   7.066   5.497   1.662 -0.6082  0.7510 -1.1147
  937SOL     OW 4260   4.326   4.735   0.508  0.2765  0.5028  0.0445
  937SOL    HW1 4261   4.302   4.745   0.600  0.6366  0.4410  0.1453
  937SOL    HW2 4262   4.354   4.822   0.481  0.6945  0.4011  0.1446
  938SOL     OW 4263   0.702   6.119   5.420 -0.2447 -0.1269 -0.1415
  938SOL    HW1 4264   0.655   6.080   5.346 -0.9881  2.6421 -1.2702
  938SOL    HW2 4265   0.634   6.168   5.467  0.5883 -0.3216  1.2936
  939SOL     OW 4266   1.878   3.903   3.908 -0.4202  0.1414 -0.0989
  939SOL    HW1 4267   1.827   3.973   3.948 -1.3439  0.6438 -2.0278
  939SOL    HW2 4268   1.847   3.823   3.952 -1.3640  0.6563  0.2090
  940SOL     OW 4269   6.490   0.329   6.611  0.5121 -0.0376 -0.5252
  940SOL    HW1 4270   6.411   0.293   6.570 -1.4065  1.0387  2.0082
  940SOL    HW2 4271   6.523   0.393   6.548 -2.0941  1.2718 -0.6738
  941SOL     OW 4272   3.988   4.544   0.899  0.4012  0.2249  0.8633
  941SOL    HW1 4273   3.984   4.566   0.992 -1.3657  0.7658  0.6842
  941SOL    HW2 4274   3.930   4.468   0.889 -0.2660  0.8258  0.0386
  942SOL     OW 4275   3.797   1.064   6.680 -0.6377  0.0125  0.0192
  942SOL    HW1 4276   3.890   1.085   6.669 -0.7716  2.3144  2.1941
  942SOL    HW2 4277   3.795   1.005   6.755 -0.8337 -1.8537 -1.4017
  943SOL     OW 4278   6.909   0.797   3.146 -0.5701 -0.2579  0.1613
  943SOL    HW1 4279   6.928   0.704   3.142  0.1841 -0.1393  0.6711
  943SOL    HW2 4280   6.987   0.839   3.108 -0.3963  0.1967  0.9795
  944SOL     OW 4281   0.078   6.715   0.583  0.2396  0.6311  0.2395
  944SOL    HW1 4282   0.016   6.766   0.635  1.1317 -0.0678  2.0520
  944SOL    HW2 4283   0.163   6.756   0.600  0.4286  1.1935 -1.7354
  945SOL     OW 4284   6.527   0.160   4.914 -0.0901  0.1386  0.0810
  945SOL    HW1 4285   6.464   0.230   4.933 -2.1365 -1.0688 -1.7431
  945SOL    HW2 4286   6.524   0.103   4.991  0.2711  1.1301  0.8384
  946SOL     OW 4287   1.371   4.822   3.388 -0.3103  0.0452 -0.0693
  946SOL    HW1 4288   1.283   4.839   3.421 -0.5374  1.7446 -1.3958
  946SOL    HW2 4289   1.426   4.819   3.467 -1.3451  0.3880  0.6841
  947SOL     OW 4290   1.316   4.465   6.600  0.7625  0.1820  0.5250
  947SOL    HW1 4291   1.313   4.465   6.504 -0.6072  3.1336  0.4584
  947SOL    HW2 4292   1.394   4.413   6.622  0.9423 -0.8195 -2.1284
  948SOL     OW 4293   6.196   5.700   1.116 -0.1151 -0.0799  0.1344
  948SOL    HW1 4294   6.168   5.772   1.173  0.8018  0.4615 -0.0816
  948SOL    HW2 4295   6.201   5.740   1.029  0.3888 -0.4104  0.0137
  949SOL     OW 4296   5.446   3.294   3.030 -0.1007  0.0995  0.4567
  949SOL    HW1 4297   5.359   3.331   3.020 -0.5067 -0.9248  0.0130
  949SOL    HW2 4298   5.506   3.364   3.004 -0.8484  0.2903 -0.7885
  950SOL     OW 4299   1.713   2.493   2.319  0.5897  0.3134  0.5286
  950SOL    HW1 4300   1.652   2.493   2.245 -0.4391 -1.8680  1.2586
  950SOL    HW2 4301   1.797   2.518   2.282 -0.1568  0.4859 -1.1195
  951SOL     OW 4302   5.120   3.922   6.878  0.2466  0.2769 -0.5811
  951SOL    HW1 4303   5.179   3.865   6.928 -0.8237 -2.0238 -1.7872
  951SOL    HW2 4304   5.055   3.951   6.942  1.6263  1.4346  0.3736
  952SOL     OW 4305   3.449   5.982   2.848 -0.3698 -0.4984  0.2782
  952SOL    HW1 4306   3.366   6.025   2.869 -0.9836 -1.3755 -0.3098
  952SOL    HW2 4307   3.502   5.993   2.927 -0.8706  0.4708  0.4943
  953SOL     OW 4308   4.480   4.431   3.976 -0.2610  0.0849  0.2259
  953SOL    HW1 4309   4.568   4.442   4.012  0.1294 -0.5065 -0.5277
  953SOL    HW2 4310   4.425   4.491   4.027  0.8066  1.4117 -0.1338
  954SOL     OW 4311   0.878   4.398   4.523  0.1566  0.0171 -0.0096
  954SOL    HW1 4312   0.848   4.453   4.450  0.6718  0.8089  0.3579
  954SOL    HW2 4313   0.824   4.426   4.597 -1.3135 -1.7262 -0.3534
  955SOL     OW 4314   5.628   3.031   3.740 -0.0045 -0.1632  0.2214
  955SOL    HW1 4315   5.676   3.054   3.819 -0.7374 -0.6490  0.8146
  955SOL    HW2 4316   5.654   3.098   3.676  0.0613  0.6306  1.0680
  956SOL     OW 4317   5.265   4.369   2.984  0.0929 -0.9018 -0.3087
  956SOL    HW1 4318   5.342   4.336   2.939  0.1177 -0.1177 -0.8728
  956SOL    HW2 4319   5.191   4.336   2.932  0.1065 -0.3615 -0.6765
  957SOL     OW 4320   4.672   3.343   4.416 -0.4511  0.2182  0.4296
  957SOL    HW1 4321   4.716   3.425   4.438 -0.3764  0.8386 -1.7584
  957SOL    HW2 4322   4.738   3.294   4.367 -1.1213 -0.3093  0.0441
  958SOL     OW 4323   6.018   0.695   0.135  0.3351  0.0873 -0.3049
  958SOL    HW1 4324   6.095   0.741   0.167  1.0675 -1.1318 -0.2537
  958SOL    HW2 4325   6.046   0.604   0.128 -0.7007 -0.1578 -1.5885
  959SOL     OW 4326   1.513   6.297   5.630  0.3147  0.0450  0.5816
  959SOL    HW1 4327   1.459   6.220   5.616 -1.2526  0.4588  3.5237
  959SOL    HW2 4328   1.581   6.269   5.690  0.7466  0.5867  0.3616
  960SOL     OW 4329   4.162   2.023   2.688 -0.8313 -0.4052  0.3178
  960SOL    HW1 4330   4.173   2.021   2.593 -0.9765  0.9570  0.2601
  960SOL    HW2 4331   4.085   2.078   2.703  0.2856  0.9666  1.2983
  961SOL     OW 4332   5.595   0.423   0.593  0.4764 -0.3746  0.2579
  961SOL    HW1 4333   5.553   0.505   0.617  0.7177  0.3463 -1.6379
  961SOL    HW2 4334   5.676   0.421   0.645  0.2673  0.3831  0.6271
  962SOL     OW 4335   3.931   4.355   7.115 -0.1136  0.2479 -0.0541
  962SOL    HW1 4336   3.921   4.315   7.201  1.4180  1.5872  0.7904
  962SOL    HW2 4337   3.978   4.290   7.063 -1.0748 -0.5807  0.0707
  963SOL     OW 4338   4.669   1.200   4.742 -0.4504  0.4648  0.0322
  963SOL    HW1 4339   4.631   1.144   4.674  0.3375  0.7509 -0.6532
  963SOL    HW2 4340   4.619   1.179   4.821 -0.2668 -1.1017 -0.2446
  964SOL     OW 4341   1.638   2.594   4.728  0.6640  0.1058  0.3792
  964SOL    HW1 4342   1.630   2.533   4.802  0.8700 -0.5846 -0.1510
  964SOL    HW2 4343   1.723   2.636   4.740  0.0704  1.0888  1.3257
  965SOL     OW 4344   4.449   4.571   3.388  0.2528  1.1289  0.0038
  965SOL    HW1 4345   4.466   4.655   3.431 -0.9006  1.0200  0.6997
  965SOL    HW2 4346   4.460   4.589   3.295 -0.0458  2.0666  0.1412
  966SOL     OW 4347   1.857   2.791   1.618 -0.0027  0.2455 -0.9654
  966SOL    HW1 4348   1.853   2.857   1.549 -0.6227 -0.2782 -1.4442
  966SOL    HW2 4349   1.881   2.840   1.697  0.8004  0.8383 -1.5604
  967SOL     OW 4350   2.063   6.503   5.878  0.1562 -0.7437  0.5798
  967SOL    HW1 4351   1.968   6.509   5.888  0.1205 -2.0257  1.1622
  967SOL    HW2 4352   2.080   6.411   5.860  1.3071 -0.5551  0.6252
  968SOL     OW 4353   2.976   4.040   0.013 -0.6159 -0.5430 -0.5310
  968SOL    HW1 4354   2.980   3.955  -0.030  0.1090 -1.2326  0.8350
  968SOL    HW2 4355   2.883   4.062   0.014 -0.8644 -1.5670 -0.4386
  969SOL     OW 4356   7.134   5.732   4.366 -0.3441 -0.4626 -0.6488
  969SOL    HW1 4357   7.182   5.725   4.284  0.3229  1.2148 -0.4430
  969SOL    HW2 4358   7.149   5.649   4.410  0.9213 -0.6315 -1.3615
  970SOL     OW 4359   6.593   2.403   3.847  0.1098  0.2553 -0.2442
  970SOL    HW1 4360   6.680   2.393   3.809 -0.1698 -0.8925 -0.6437
  970SOL    HW2 4361   6.606   2.385   3.940  0.4754  1.1649 -0.1128
  971SOL     OW 4362   1.272   2.091   6.648  0.4516  0.1928 -0.2968
  971SOL    HW1 4363   1.309   2.005   6.629  0.8563  0.0468  1.0602
  971SOL    HW2 4364   1.199   2.100   6.587  1.8684 -0.0857 -2.1137
  972SOL     OW 4365   0.671   1.466   6.616 -1.1828  0.3629 -0.7017
  972SOL    HW1 4366   0.704   1.424   6.536  3.5296 -1.8234  1.9564
  972SOL    HW2 4367   0.732   1.537   6.633 -3.1127  1.9044  0.1382
  973SOL     OW 4368   3.874   0.460   0.478 -0.0227  0.2486  0.3428
  973SOL    HW1 4369   3.783   0.451   0.507  0.0166 -1.3665  0.0440
  973SOL    HW2 4370   3.883   0.396   0.407  0.3089  2.9966 -2.2731
  974SOL     OW 4371   3.832   0.488   5.218 -0.6475  0.1409 -0.0972
  974SOL    HW1 4372   3.829   0.399   5.254 -0.1519  0.6621  1.2722
  974SOL    HW2 4373   3.756   0.532   5.255 -0.6138  0.4395 -0.3776
  975SOL     OW 4374   3.409   4.319   5.127  0.4936 -0.1748 -0.0027
  975SOL    HW1 4375   3.410   4.281   5.215  0.4105 -0.6216 -0.1922
  975SOL    HW2 4376   3.391   4.245   5.069 -3.7118  0.6605 -0.0817
  976SOL     OW 4377   7.126   2.889   1.368  0.0339 -0.0068  0.0334
  976SOL    HW1 4378   7.078   2.807   1.376 -1.3084  0.7193 -0.2411
  976SOL    HW2 4379   7.205   2.876   1.422 -1.1827 -0.7188  1.7458
  977SOL     OW 4380   6.679   0.012   6.643  0.1659 -0.1557 -0.5640
  977SOL    HW1 4381   6.679   0.014   6.548  0.6671  0.1712 -0.5612
  977SOL    HW2 4382   6.729  -0.067   6.665 -1.0879 -0.9670 -0.5736
  978SOL     OW 4383   0.577   6.143   2.752 -0.2080  0.1639 -0.0383
  978SOL    HW1 4384   0.494   6.191   2.760  0.6610  1.6347  0.3219
  978SOL    HW2 4385   0.612   6.169   2.667 -0.0319 -0.3508 -0.1304
  979SOL     OW 4386   0.290   3.922   6.990 -0.4185 -0.6132 -0.1229
  979SOL    HW1 4387   0.377   3.958   6.971 -0.7965  0.4221  0.0551
  979SOL    HW2 4388   0.235   3.999   7.003 -1.3743 -1.2645 -0.2687
  980SOL     OW 4389   5.306   4.027   6.077  0.5049 -0.6832  0.1256
  980SOL    HW1 4390   5.389   4.041   6.032 -0.7628 -0.2327 -2.2659
  980SOL    HW2 4391   5.324   4.050   6.168  3.0523 -0.9144 -0.2391
  981SOL     OW 4392   4.736   0.652   5.935 -0.3629  0.9445 -0.2206
  981SOL    HW1 4393   4.680   0.581   5.967  0.1309  1.2247  1.3700
  981SOL    HW2 4394   4.719   0.656   5.841 -0.9926 -0.7513 -0.2129
  982SOL     OW 4395   2.902   1.182   6.380 -0.0510 -0.2088  0.2445
  982SOL    HW1 4396   2.810   1.206   6.371 -0.2182 -0.8189  0.3276
  982SOL    HW2 4397   2.907   1.132   6.461  0.3201 -0.3507  0.1371
  983SOL     OW 4398   1.892   4.074   2.521  0.2961 -0.1251  0.1740
  983SOL    HW1 4399   1.839   4.047   2.446 -0.6458  1.8873  0.0429
  983SOL    HW2 4400   1.972   4.023   2.514  0.4387  0.3277 -2.4969
  984SOL     OW 4401   5.189   4.568   5.547 -0.3710 -0.3041 -0.3970
  984SOL    HW1 4402   5.193   4.474   5.532 -2.1031 -0.1554 -2.2410
  984SOL    HW2 4403   5.281   4.595   5.552  0.1717 -1.9617 -0.6611
  985SOL     OW 4404   3.143   3.707   2.659  0.4762 -0.1901  0.1461
  985SOL    HW1 4405   3.183   3.660   2.732  2.1814 -0.6714 -1.0394
  985SOL    HW2 4406   3.187   3.792   2.660  0.5684 -0.2321 -0.3635
  986SOL     OW 4407   1.858   2.178   4.978  0.4991  0.3761 -0.3230
  986SOL    HW1 4408   1.893   2.112   5.038  0.1826  0.6900  0.2078
  986SOL    HW2 4409   1.763   2.172   4.987  0.4796  2.1902  1.1595
  987SOL     OW 4410   3.723   0.037   2.434 -0.1978  0.3112  0.0565
  987SOL    HW1 4411   3.812   0.056   2.466  0.5966 -2.7074 -0.0302
  987SOL    HW2 4412   3.736   0.013   2.342 -0.9926 -0.6780  0.1867
  988SOL     OW 4413   0.284   1.100   5.493  0.6207 -0.2238 -0.4797
  988SOL    HW1 4414   0.357   1.042   5.467  0.5532 -1.3895  1.7207
  988SOL    HW2 4415   0.210   1.069   5.442  0.2156 -3.1948  1.6344
  989SOL     OW 4416   4.890   6.602   4.648 -0.1715  0.7016 -0.2004
  989SOL    HW1 4417   4.798   6.590   4.671 -0.0983 -2.1789 -1.0450
  989SOL    HW2 4418   4.936   6.602   4.732 -0.9264  3.0294  0.2944
  990SOL     OW 4419   3.292   1.871   1.295  0.3488 -0.2687 -0.2867
  990SOL    HW1 4420   3.226   1.893   1.362  0.7505 -0.8019  0.2957
  990SOL    HW2 4421   3.241   1.841   1.220 -0.0724 -3.9437  1.2905
  991SOL     OW 4422   3.457   5.903   5.016 -0.2752  0.1487 -0.2238
  991SOL    HW1 4423   3.471   5.993   5.046 -3.2517  0.5300  0.3670
  991SOL    HW2 4424   3.529   5.853   5.055 -0.8648  1.5970  2.9970
  992SOL     OW 4425   2.527   4.041   2.300 -0.0571 -0.2867 -0.1951
  992SOL    HW1 4426   2.563   4.128   2.288 -0.5412  0.1331  1.1425
  992SOL    HW2 4427   2.432   4.052   2.292 -0.0747 -0.8635 -0.9158
  993SOL     OW 4428   5.787   4.775   4.974  0.3807 -0.7357  0.0833
  993SOL    HW1 4429   5.715   4.713   4.964  0.2882 -0.8391  1.2912
  993SOL    HW2 4430   5.844   4.758   4.899  0.5261 -2.5198  0.5551
  994SOL     OW 4431   6.891   4.952   1.663  0.7343  0.7999 -0.0298
  994SOL    HW1 4432   6.936   4.918   1.585  1.2586  1.0808  0.1434
  994SOL    HW2 4433   6.894   4.879   1.725  0.8275  0.7671 -0.0709
  995SOL     OW 4434   1.160   1.498   2.084  0.4506  0.2943  0.4696
  995SOL    HW1 4435   1.224   1.561   2.117 -0.3489  0.2382  2.1807
  995SOL    HW2 4436   1.159   1.428   2.149 -0.6165 -0.1971 -0.0543
  996SOL     OW 4437   5.858   4.591   6.598  0.4860  0.2977  0.0495
  996SOL    HW1 4438   5.914   4.553   6.665 -0.4360 -1.4116 -0.1098
  996SOL    HW2 4439   5.774   4.607   6.642  0.4041  0.7833 -0.2653
  997SOL     OW 4440   5.440   5.958   5.878 -0.5363  0.4427 -0.5244
  997SOL    HW1 4441   5.456   5.905   5.800 -0.7057  0.3462 -0.4929
  997SOL    HW2 4442   5.448   5.897   5.951  2.9701  1.0980 -0.1754
  998SOL     OW 4443   1.269   2.888   4.472  0.1333 -0.0211  0.1045
  998SOL    HW1 4444   1.221   2.819   4.427  0.9306 -0.4010 -0.1820
  998SOL    HW2 4445   1.324   2.842   4.535 -0.6016  0.4701  1.1514
  999SOL     OW 4446   2.679   3.094   4.308  0.1666 -0.1668  0.1314
  999SOL    HW1 4447   2.637   3.121   4.390  1.6684  0.7909  0.6301
  999SOL    HW2 4448   2.738   3.023   4.335  0.6554  0.1449 -0.0979
 1000SOL     OW 4449   6.769   2.221   6.614  0.1191  0.1157 -0.9921
 1000SOL    HW1 4450   6.725   2.280   6.553 -2.3085  0.7942  1.2109
 1000SOL    HW2 4451   6.706   2.150   6.627  1.2860 -0.8643 -0.5074
 1001SOL     OW 4452   2.219   0.152   2.143  0.0777  0.6407 -0.5411
 1001SOL    HW1 4453   2.189   0.235   2.180  1.0731  1.5478 -1.7105
 1001SOL    HW2 4454   2.313   0.150   2.159  0.0617 -0.3108 -0.4748
 1002SOL     OW 4455   4.522   5.061   2.265  0.7730 -0.5614 -0.3613
 1002SOL    HW1 4456   4.454   5.083   2.201  0.8399  0.4482 -0.0978
 1002SOL    HW2 4457   4.496   4.975   2.299 -0.4961 -0.0972 -0.1023
 1003SOL     OW 4458   3.895   0.109   5.911  0.1413  0.1311 -0.4424
 1003SOL    HW1 4459   3.827   0.073   5.854  0.0489 -0.0623 -0.2101
 1003SOL    HW2 4460   3.873   0.202   5.917  0.2288  0.1794 -0.8292
 1004SOL     OW 4461   0.072   0.988   6.265  0.3140 -0.2892 -0.3292
 1004SOL    HW1 4462   0.116   0.985   6.350  1.6308 -0.9666 -1.0016
 1004SOL    HW2 4463   0.073   1.080   6.240 -2.3542  0.3220  1.4854
 1005SOL     OW 4464   0.173   6.074   5.350  0.2990 -0.0862  0.4949
 1005SOL    HW1 4465   0.251   6.027   5.381 -0.6642 -1.5392  0.8487
 1005SOL    HW2 4466   0.120   6.007   5.307 -0.9100  0.7955  0.5474
 1006SOL     OW 4467   5.349   3.987   0.429 -0.3616 -0.4016  0.5705
 1006SOL    HW1 4468   5.356   3.893   0.411  1.6381 -0.1058 -0.4223
 1006SOL    HW2 4469   5.297   3.991   0.509 -0.7412 -2.3273  0.4889
 1007SOL     OW 4470   4.310   0.679   5.893  0.1421  0.0249 -0.5978
 1007SOL    HW1 4471   4.370   0.612   5.927  0.3227  0.3251 -0.3179
 1007SOL    HW2 4472   4.262   0.635   5.823 -0.4677 -0.7220  0.2468
 1008SOL     OW 4473   2.262   4.115   2.270  0.1157  0.3876  0.0937
 1008SOL    HW1 4474   2.205   4.125   2.194  0.0327  1.3035  0.2663
 1008SOL    HW2 4475   2.275   4.204   2.303  0.7669  0.0826  0.7023
 1009SOL     OW 4476   2.171   2.389   4.894 -0.7151 -0.2226  0.0691
 1009SOL    HW1 4477   2.200   2.402   4.984 -0.9344  1.4150 -0.0660
 1009SOL    HW2 4478   2.137   2.299   4.893 -0.7440 -0.2661  1.6195
 1010SOL     OW 4479   4.350   0.778   5.035 -0.3162  0.0064 -0.3387
 1010SOL    HW1 4480   4.275   0.834   5.057 -0.5213  0.0508 -1.1155
 1010SOL    HW2 4481   4.311   0.698   5.002 -0.0160 -0.2894  0.0159
 1011SOL     OW 4482   5.684   1.384   0.836 -0.3524  0.2440 -0.5049
 1011SOL    HW1 4483   5.640   1.402   0.920 -0.7774 -0.2524 -0.6210
 1011SOL    HW2 4484   5.714   1.470   0.807  0.7307  0.2925  0.6693
 1012SOL     OW 4485   1.611   6.655   1.786 -0.2057  0.3530  0.3304
 1012SOL    HW1 4486   1.690   6.609   1.814 -1.7797 -2.5153  0.4387
 1012SOL    HW2 4487   1.585   6.707   1.863  1.6236  1.5522  0.1997
 1013SOL     OW 4488   2.535   1.750   0.109 -0.5026 -0.4317 -0.1778
 1013SOL    HW1 4489   2.588   1.825   0.080 -1.7917  0.2647 -0.8694
 1013SOL    HW2 4490   2.469   1.789   0.166 -1.6739 -0.9049 -1.1670
 1014SOL     OW 4491   4.713   4.401   4.107  0.0469 -0.2279  0.5412
 1014SOL    HW1 4492   4.797   4.438   4.081  0.6177 -0.8113  1.4745
 1014SOL    HW2 4493   4.703   4.425   4.199 -1.0594  0.2653  0.3065
 1015SOL     OW 4494   2.487   4.213   5.386 -0.2432 -0.4146 -0.1978
 1015SOL    HW1 4495   2.568   4.259   5.362  0.2210  0.2424  2.3229
 1015SOL    HW2 4496   2.496   4.127   5.345  1.3368 -0.0712 -0.6766
 1016SOL     OW 4497   4.249   0.216   2.385  0.0269 -0.5961  0.6285
 1016SOL    HW1 4498   4.226   0.308   2.393  0.1707 -0.4145 -0.8281
 1016SOL    HW2 4499   4.167   0.172   2.359  0.5534 -0.4038 -1.5570
 1017SOL     OW 4500   6.212   6.454   4.265 -0.8112 -0.0301  0.1855
 1017SOL    HW1 4501   6.124   6.423   4.287 -0.5725  0.4251  1.9212
 1017SOL    HW2 4502   6.260   6.448   4.347  0.6908  0.0763 -0.6621
 1018SOL     OW 4503   0.395   6.574   0.187 -0.4949 -0.4142 -0.2325
 1018SOL    HW1 4504   0.388   6.481   0.208  0.3782 -0.3965  0.1512
 1018SOL    HW2 4505   0.413   6.617   0.270  2.2152 -0.2598 -0.8274
 1019SOL     OW 4506   1.499   3.646   1.499 -0.0694  0.3363  0.3475
 1019SOL    HW1 4507   1.554   3.617   1.426  0.8862  2.7808 -0.0027
 1019SOL    HW2 4508   1.421   3.682   1.457  0.2574  1.2829  0.5219
 1020SOL     OW 4509   3.005   0.558   1.408 -0.0340 -0.4288  0.3319
 1020SOL    HW1 4510   3.014   0.523   1.497  1.3825 -0.1025  0.3369
 1020SOL    HW2 4511   3.061   0.502   1.355  1.9835  1.4872  0.2711
 1021SOL     OW 4512   5.556   3.826   1.127 -0.5602  0.0966  0.3510
 1021SOL    HW1 4513   5.479   3.769   1.123  0.0203 -0.8540  1.7588
 1021SOL    HW2 4514   5.629   3.770   1.100 -0.2271  0.7058 -0.0202
 1022SOL     OW 4515   1.208   2.471   2.073  0.0535 -0.5420 -0.7004
 1022SOL    HW1 4516   1.134   2.453   2.131  0.4276 -1.1705 -0.4116
 1022SOL    HW2 4517   1.272   2.403   2.093  1.5702  1.1579  0.5197
 1023SOL     OW 4518   5.552   6.982   0.614 -0.4115  0.0715  0.6949
 1023SOL    HW1 4519   5.524   6.999   0.524  2.4127 -0.4074 -0.3765
 1023SOL    HW2 4520   5.576   6.890   0.615 -2.6744 -0.6044  2.7046
 1024SOL     OW 4521   3.518   6.144   5.409 -0.4352  0.8295 -0.5993
 1024SOL    HW1 4522   3.543   6.188   5.491 -0.8987  0.5655 -0.3127
 1024SOL    HW2 4523   3.562   6.194   5.341  1.5691 -0.1092 -0.0660
 1025SOL     OW 4524   0.640   1.127   6.213  0.3252 -0.2909 -0.7370
 1025SOL    HW1 4525   0.664   1.218   6.228  1.6543 -0.3123 -2.3825
 1025SOL    HW2 4526   0.632   1.119   6.118 -1.9990 -1.3963 -0.5277
 1026SOL     OW 4527   6.079   6.222   5.454 -0.0386 -0.6167 -0.0321
 1026SOL    HW1 4528   6.080   6.195   5.546  0.5382 -0.1181  0.1157
 1026SOL    HW2 4529   6.120   6.309   5.454  0.4387 -0.8299 -0.8266
 1027SOL     OW 4530   6.526   5.766   0.045 -0.2050 -0.1478  0.2457
 1027SOL    HW1 4531   6.445   5.773  -0.006 -0.3529 -0.5897  0.4108
 1027SOL    HW2 4532   6.596   5.781  -0.019 -0.4043 -0.2215  0.0077
 1028SOL     OW 4533   7.122   1.181   2.677 -0.0528  0.0233  0.8285
 1028SOL    HW1 4534   7.164   1.150   2.757  3.0612  1.4873 -0.0845
 1028SOL    HW2 4535   7.192   1.181   2.611 -2.3091 -0.4528 -1.7605
 1029SOL     OW 4536   5.397   1.053   5.518 -0.0104  0.3205  0.2460
 1029SOL    HW1 4537   5.355   0.971   5.489  0.7160  0.1770 -0.4268
 1029SOL    HW2 4538   5.345   1.080   5.593 -1.1839  0.0280 -0.4199
 1030SOL     OW 4539   5.206   3.414   0.169 -0.0089  0.2156 -0.0525
 1030SOL    HW1 4540   5.252   3.494   0.142 -0.3821  1.1192  1.8375
 1030SOL    HW2 4541   5.258   3.343   0.130  1.4052  1.3091 -0.2642
 1031SOL     OW 4542   2.408   6.863   1.704  0.1054 -0.0067 -0.6406
 1031SOL    HW1 4543   2.353   6.921   1.653 -1.1241  0.0148  0.6470
 1031SOL    HW2 4544   2.422   6.787   1.648 -1.3537 -0.0650 -0.9583
 1032SOL     OW 4545   5.729   2.197   2.725 -0.1676 -0.7598  0.1067
 1032SOL    HW1 4546   5.664   2.231   2.663 -0.9127  1.3342  1.8850
 1032SOL    HW2 4547   5.813   2.219   2.687 -0.6244  1.8028  0.3926
 1033SOL     OW 4548   6.848   2.918   3.603  0.6028 -0.4033  0.0165
 1033SOL    HW1 4549   6.902   2.918   3.682 -1.5358  0.5512  1.5945
 1033SOL    HW2 4550   6.764   2.880   3.631  0.2204 -1.3529 -2.1765
 1034SOL     OW 4551   2.956   5.576   6.878  0.5771 -0.0964  0.3737
 1034SOL    HW1 4552   2.870   5.615   6.892  0.4949  1.3392 -3.0504
 1034SOL    HW2 4553   2.939   5.481   6.879 -1.1889  0.1508 -0.6603
 1035SOL     OW 4554   4.993   6.223   4.679  0.6291 -0.4435 -0.2388
 1035SOL    HW1 4555   4.947   6.199   4.760 -0.4008 -0.1889 -0.7275
 1035SOL    HW2 4556   5.062   6.283   4.708  0.7913 -0.9863  0.5344
 1036SOL     OW 4557   4.886   6.267   0.026  0.0085  0.4371  0.3496
 1036SOL    HW1 4558   4.830   6.259   0.103  1.9595  0.2740  1.8383
 1036SOL    HW2 4559   4.844   6.212  -0.040  0.4162 -2.9857  2.6555
 1037SOL     OW 4560   1.393   6.982   0.056 -0.5478 -0.3492  0.0587
 1037SOL    HW1 4561   1.422   6.893   0.072 -1.1670 -0.2732  1.8051
 1037SOL    HW2 4562   1.310   6.989   0.103  0.2099  1.5726  1.2091
 1038SOL     OW 4563   5.228   6.951   4.648  0.3326 -0.0959  0.0689
 1038SOL    HW1 4564   5.206   6.942   4.741 -1.6483 -0.5957 -0.4080
 1038SOL    HW2 4565   5.206   7.042   4.627 -3.0993 -0.9590 -0.7558
 1039SOL     OW 4566   5.852   2.898   3.860  0.8384  0.0346 -0.0621
 1039SOL    HW1 4567   5.783   2.900   3.793  1.6863 -1.2167 -0.9992
 1039SOL    HW2 4568   5.806   2.922   3.941 -0.5203  0.0806 -0.8102
 1040SOL     OW 4569   6.659   4.554   4.775 -0.3084 -0.1420  0.2191
 1040SOL    HW1 4570   6.630   4.489   4.839  0.7363 -0.4549  0.3886
 1040SOL    HW2 4571   6.580   4.574   4.724 -0.8299 -0.9239  0.6995
 1041SOL     OW 4572   0.138   2.924   3.039  0.3581 -0.2339  0.1953
 1041SOL    HW1 4573   0.102   2.957   2.958 -0.9779  0.4801  1.0518
 1041SOL    HW2 4574   0.231   2.950   3.036  0.2353  0.1275 -0.8965
 1042SOL     OW 4575   2.848   4.929   0.267  0.0596  0.1056  0.7589
 1042SOL    HW1 4576   2.909   4.982   0.216 -1.9135  0.2183 -1.6603
 1042SOL    HW2 4577   2.791   4.993   0.311  0.7329 -0.0127  1.8354
 1043SOL     OW 4578   6.171   4.213   4.323 -0.1397 -0.3722  0.3266
 1043SOL    HW1 4579   6.121   4.268   4.263  0.4618  0.3346  0.4741
 1043SOL    HW2 4580   6.253   4.259   4.337  1.8441 -2.7803 -2.1280
 1044SOL     OW 4581   1.185   6.047   1.186  0.1042 -0.3250 -0.0581
 1044SOL    HW1 4582   1.189   5.966   1.237  2.7173 -0.8313 -0.9221
 1044SOL    HW2 4583   1.141   6.022   1.105  1.5781 -1.1441 -0.6517
 1045SOL     OW 4584   6.475   3.498   2.592  0.0608  0.3782 -0.5883
 1045SOL    HW1 4585   6.407   3.485   2.659  0.9483 -0.5435  0.1524
 1045SOL    HW2 4586   6.441   3.452   2.515  0.1723 -0.7208  0.0067
 1046SOL     OW 4587   2.427   1.490   6.754  0.4127 -0.1987  0.3034
 1046SOL    HW1 4588   2.404   1.400   6.731  1.8077 -0.3001 -0.8595
 1046SOL    HW2 4589   2.461   1.485   6.843 -1.6861 -0.4016  1.1568
 1047SOL     OW 4590   5.388   5.154   5.296 -0.1373  0.3078  0.1954
 1047SOL    HW1 4591   5.477   5.189   5.304  0.0655 -0.2029  0.2218
 1047SOL    HW2 4592   5.332   5.231   5.292  0.1671  0.6291  1.7817
 1048SOL     OW 4593   1.012   3.639   5.135  0.3174  0.4116  0.1877
 1048SOL    HW1 4594   1.038   3.635   5.227  0.6686 -0.5301  0.0580
 1048SOL    HW2 4595   1.075   3.582   5.090 -0.0219  0.6479 -0.5955
 1049SOL     OW 4596   0.171   5.280   1.274  0.2428 -0.0184 -0.3571
 1049SOL    HW1 4597   0.141   5.253   1.187  0.9464 -1.6825 -0.1117
 1049SOL    HW2 4598   0.244   5.339   1.257 -0.1357  0.3054 -0.8985
 1050SOL     OW 4599   3.747   0.116   3.189 -0.3041  0.2230  0.2011
 1050SOL    HW1 4600   3.718   0.046   3.131  0.2514  0.7422 -0.7372
 1050SOL    HW2 4601   3.801   0.172   3.133  1.2707  0.0820  1.4975
 1051SOL     OW 4602   0.612   5.727   6.381  0.0888 -0.1553 -1.0226
 1051SOL    HW1 4603   0.698   5.767   6.366  0.6539 -0.9495  0.0094
 1051SOL    HW2 4604   0.589   5.689   6.296  0.0339  1.3913 -1.7342
 1052SOL     OW 4605   3.651   1.993   5.595  0.0665 -0.0500 -0.1927
 1052SOL    HW1 4606   3.562   1.967   5.569  0.1622 -1.3773  0.7434
 1052SOL    HW2 4607   3.642   2.021   5.686  0.6160 -0.2522 -0.0744
 1053SOL     OW 4608   1.793   3.890   5.794  0.2294 -0.3680  0.3189
 1053SOL    HW1 4609   1.795   3.795   5.802  1.4628 -0.3510  0.3854
 1053SOL    HW2 4610   1.878   3.913   5.756  0.7359  0.8557  2.0722
 1054SOL     OW 4611   6.019   0.581   4.244  0.1413 -0.2740  0.0761
 1054SOL    HW1 4612   6.094   0.554   4.191  0.1328 -2.4532  1.0717
 1054SOL    HW2 4613   6.001   0.505   4.300 -4.1368 -0.7212 -1.5470
 1055SOL     OW 4614   6.612   6.852   5.525  0.3107  0.5065 -0.5288
 1055SOL    HW1 4615   6.598   6.889   5.438  0.4493 -0.9561 -1.1968
 1055SOL    HW2 4616   6.577   6.763   5.519  0.0800  0.4662  0.9955
 1056SOL     OW 4617   4.683   3.601   3.218  0.1790  0.3287 -0.1401
 1056SOL    HW1 4618   4.658   3.601   3.126  0.2660 -2.5261 -0.2453
 1056SOL    HW2 4619   4.777   3.622   3.217  0.3454 -0.3897 -0.7943
 1057SOL     OW 4620   2.176   2.926   6.290 -0.0119  0.0720 -0.6698
 1057SOL    HW1 4621   2.233   3.002   6.302  0.7364 -0.5222 -0.4609
 1057SOL    HW2 4622   2.090   2.957   6.319  0.5973  0.3695  0.8843
 1058SOL     OW 4623   4.029   4.035   3.959 -1.0922 -0.5499  0.0137
 1058SOL    HW1 4624   4.108   4.052   4.011 -1.8273  0.3936  0.8498
 1058SOL    HW2 4625   4.042   4.087   3.879 -0.9765 -0.1952  0.2596
 1059SOL     OW 4626   6.103   3.167   4.469  0.4924 -0.1589 -0.9698
 1059SOL    HW1 4627   6.023   3.127   4.503  1.8022 -1.1146  1.0986
 1059SOL    HW2 4628   6.099   3.150   4.375 -0.6811 -2.1268 -0.6245
 1060SOL     OW 4629   0.334   5.620   3.652  0.1527 -0.1870  0.2373
 1060SOL    HW1 4630   0.374   5.541   3.616 -0.2244 -0.0597 -0.4762
 1060SOL    HW2 4631   0.294   5.663   3.576 -0.7357  0.0387  0.8157
 1061SOL     OW 4632   4.688   5.780   4.321 -0.3833  0.5077  0.0660
 1061SOL    HW1 4633   4.593   5.770   4.328 -0.5703  1.1522 -1.2335
 1061SOL    HW2 4634   4.717   5.795   4.411 -1.6954  1.7180  0.3267
 1062SOL     OW 4635   1.597   2.604   2.811 -0.4940  0.2081 -0.2990
 1062SOL    HW1 4636   1.505   2.631   2.805 -0.8602 -0.8365  0.2037
 1062SOL    HW2 4637   1.595   2.511   2.789  0.3289 -0.0051  0.4830
 1063SOL     OW 4638   5.215   6.895   2.344  0.0562  0.2229 -0.1780
 1063SOL    HW1 4639   5.264   6.921   2.266 -1.4713 -1.6644 -1.9105
 1063SOL    HW2 4640   5.147   6.835   2.310 -0.9773 -0.2958  2.5557
 1064SOL     OW 4641   0.655   2.346   5.512  0.7950 -1.1456  0.5129
 1064SOL    HW1 4642   0.747   2.355   5.486  0.5942  0.3121  0.2253
 1064SOL    HW2 4643   0.647   2.401   5.590 -0.0573 -0.4457 -0.0572
 1065SOL     OW 4644   0.155   6.089   2.068  0.0207  0.1872 -0.0066
 1065SOL    HW1 4645   0.179   6.088   2.160  1.9924  2.5133 -0.4021
 1065SOL    HW2 4646   0.180   6.003   2.035 -1.3321 -0.9214  1.7158
 1066SOL     OW 4647   0.413   3.283   6.343  0.0853 -0.1337 -0.4972
 1066SOL    HW1 4648   0.328   3.260   6.305  0.2292 -0.6192 -0.5263
 1066SOL    HW2 4649   0.477   3.241   6.286  0.3119 -0.7209  0.1692
 1067SOL     OW 4650   1.585   6.111   0.709  0.0546 -0.0505 -0.3860
 1067SOL    HW1 4651   1.625   6.028   0.684 -0.2071 -0.4113  0.3692
 1067SOL    HW2 4652   1.504   6.087   0.753 -0.2297  0.6244 -0.5133
 1068SOL     OW 4653   6.577   3.808   2.887 -0.2452  0.1410 -0.0448
 1068SOL    HW1 4654   6.490   3.837   2.914  0.2165  0.6516  0.9546
 1068SOL    HW2 4655   6.568   3.791   2.793 -1.1700  1.1680 -0.1700
 1069SOL     OW 4656   5.747   0.873   5.316  0.7237 -0.0837  0.2048
 1069SOL    HW1 4657   5.706   0.943   5.367  0.2950 -0.3171  0.1870
 1069SOL    HW2 4658   5.676   0.839   5.262  0.8231 -0.8191  0.5273
 1070SOL     OW 4659   0.449   5.391   3.582  0.5987  0.4483 -0.4542
 1070SOL    HW1 4660   0.402   5.345   3.512  0.7442  1.2567 -1.0978
 1070SOL    HW2 4661   0.532   5.345   3.589 -0.0140 -0.5920  0.2524
 1071SOL     OW 4662   5.031   3.084   2.972 -0.1138  0.2759  0.4339
 1071SOL    HW1 4663   4.946   3.043   2.988 -0.2686 -0.0508 -1.0757
 1071SOL    HW2 4664   5.029   3.165   3.024 -2.0087  1.0895 -0.7927
 1072SOL     OW 4665   6.714   0.976   1.081 -0.5572  0.3626  0.4942
 1072SOL    HW1 4666   6.626   0.999   1.113 -0.5962  0.3299  0.4124
 1072SOL    HW2 4667   6.733   0.892   1.122 -0.1544  0.8314  1.2852
 1073SOL     OW 4668   6.245   0.106   6.800  0.0331 -0.3289 -0.5732
 1073SOL    HW1 4669   6.182   0.046   6.761 -0.4945 -0.8668  1.0148
 1073SOL    HW2 4670   6.328   0.058   6.795 -0.3116 -1.0571  0.3212
 1074SOL     OW 4671   6.514   0.273   2.190 -0.2377 -0.3060 -0.1617
 1074SOL    HW1 4672   6.452   0.222   2.240 -1.4769  0.4986 -0.8292
 1074SOL    HW2 4673   6.571   0.208   2.148  0.1145 -1.0129  1.3377
 1075SOL     OW 4674   4.997   3.960   3.207  0.2527  0.4227  0.2123
 1075SOL    HW1 4675   5.046   3.954   3.126 -0.0516  0.5940  0.0147
 1075SOL    HW2 4676   5.048   4.020   3.262  0.1324  0.7994 -0.0878
 1076SOL     OW 4677   5.151   6.535   5.686  0.3392  0.1015 -0.1471
 1076SOL    HW1 4678   5.151   6.556   5.592 -2.3564  1.3921  0.0522
 1076SOL    HW2 4679   5.149   6.439   5.689  1.7810 -0.0159 -1.3268
 1077SOL     OW 4680   5.979   4.462   6.805  0.0125 -0.1378  0.0297
 1077SOL    HW1 4681   6.042   4.404   6.849  0.6103  0.4342 -0.0581
 1077SOL    HW2 4682   5.999   4.549   6.839 -1.0791 -0.0075  0.3868
 1078SOL     OW 4683   2.361   4.713   5.062  0.4822  0.3075 -0.3173
 1078SOL    HW1 4684   2.445   4.759   5.073  0.0991  0.7708  0.8731
 1078SOL    HW2 4685   2.356   4.655   5.138 -0.5357  0.7288 -0.0437
 1079SOL     OW 4686   4.863   4.216   1.062 -0.1612 -0.3641 -0.5238
 1079SOL    HW1 4687   4.859   4.307   1.034 -1.4578 -0.3191 -0.2428
 1079SOL    HW2 4688   4.922   4.217   1.138 -0.7987  0.3931 -0.0208
 1080SOL     OW 4689   3.594   5.592   4.837  0.1399 -0.1634 -0.6891
 1080SOL    HW1 4690   3.499   5.598   4.840  0.1007 -0.3577 -1.3684
 1080SOL    HW2 4691   3.615   5.593   4.744  0.7652 -0.6987 -0.5589
 1081SOL     OW 4692   0.234   1.649   6.025  0.1664 -0.1177  0.0230
 1081SOL    HW1 4693   0.231   1.688   6.112 -0.9411 -2.5745  1.1867
 1081SOL    HW2 4694   0.187   1.711   5.969  1.1241  1.6342  1.0747
 1082SOL     OW 4695   5.798   6.850   2.272 -0.0118  0.3001 -0.4274
 1082SOL    HW1 4696   5.758   6.880   2.354  0.4644  0.7589 -0.3602
 1082SOL    HW2 4697   5.840   6.767   2.294 -0.0896  0.3030 -0.2691
 1083SOL     OW 4698   6.220   4.223   6.467  0.2615 -0.4590  0.3565
 1083SOL    HW1 4699   6.240   4.316   6.462 -1.8981  0.0551  0.3308
 1083SOL    HW2 4700   6.195   4.209   6.558 -0.9697 -0.6294  0.0142
 1084SOL     OW 4701   2.334   1.669   0.555 -0.1065 -0.0780  0.3054
 1084SOL    HW1 4702   2.340   1.760   0.525  0.7505  0.3219  1.6044
 1084SOL    HW2 4703   2.402   1.623   0.505  0.9567  0.4678  1.2274
 1085SOL     OW 4704   4.143   5.982   6.921 -0.2951 -0.5914  0.3543
 1085SOL    HW1 4705   4.218   5.928   6.946  0.8847  1.1898  0.9196
 1085SOL    HW2 4706   4.156   5.999   6.828  1.2717  1.4542  0.8774
 1086SOL     OW 4707   1.449   4.965   2.054  0.2031  0.3831  0.1421
 1086SOL    HW1 4708   1.403   5.027   2.111  0.5462  0.2638  0.5573
 1086SOL    HW2 4709   1.519   4.929   2.110  0.4446  0.1484 -0.3088
 1087SOL     OW 4710   3.000   4.412   4.897  0.1525  0.1737 -0.1104
 1087SOL    HW1 4711   2.919   4.418   4.947  0.2091 -0.3121  0.0506
 1087SOL    HW2 4712   3.069   4.403   4.963  0.2959  0.1907 -0.2558
 1088SOL     OW 4713   6.950   2.688   6.374 -0.1241  0.7435  0.1902
 1088SOL    HW1 4714   6.959   2.633   6.452  0.7968  0.6132  0.0047
 1088SOL    HW2 4715   6.911   2.630   6.308  0.6883  0.3504  0.0454
 1089SOL     OW 4716   4.496   6.840   4.712 -0.2356 -0.4076 -0.1829
 1089SOL    HW1 4717   4.568   6.901   4.696  0.7408 -1.1334  1.2549
 1089SOL    HW2 4718   4.421   6.896   4.732 -0.0266  0.3532 -1.4069
 1090SOL     OW 4719   5.182   6.664   0.736  0.2862 -0.0894  0.0468
 1090SOL    HW1 4720   5.226   6.707   0.809  0.4101  0.4710 -0.3449
 1090SOL    HW2 4721   5.184   6.571   0.757  0.7317  0.0276  0.5338
 1091SOL     OW 4722   6.933   2.658   3.535 -0.3772  0.0633 -0.1870
 1091SOL    HW1 4723   6.867   2.612   3.482 -0.2330 -0.8751  0.4301
 1091SOL    HW2 4724   6.905   2.749   3.531 -0.7864 -0.0787 -1.2746
 1092SOL     OW 4725   2.742   1.857   4.485 -0.4937 -0.1473  0.1273
 1092SOL    HW1 4726   2.810   1.814   4.433 -1.7134 -1.8528 -0.1619
 1092SOL    HW2 4727   2.666   1.860   4.426 -1.1527  0.1990  0.9791
 1093SOL     OW 4728   5.570   4.751   2.794  0.2823 -0.0266  0.1790
 1093SOL    HW1 4729   5.630   4.693   2.840  0.5428  0.5683  0.6020
 1093SOL    HW2 4730   5.611   4.765   2.708 -0.7644 -2.0443 -0.6981
 1094SOL     OW 4731   6.304   4.168   0.906  0.2376  0.1198 -0.5830
 1094SOL    HW1 4732   6.231   4.121   0.947  1.0513 -1.3836 -0.7941
 1094SOL    HW2 4733   6.377   4.107   0.910  0.7348  0.4653 -2.9514
 1095SOL     OW 4734   1.437   0.556   2.987  0.1186  0.2319 -0.2332
 1095SOL    HW1 4735   1.487   0.528   3.063  2.1144 -2.0865 -2.1967
 1095SOL    HW2 4736   1.364   0.494   2.982  0.2068  0.1383 -0.3897
 1096SOL     OW 4737   3.750   4.099   0.704  0.1543 -0.0643  0.6247
 1096SOL    HW1 4738   3.830   4.147   0.727  0.2286 -0.0329  0.3147
 1096SOL    HW2 4739   3.679   4.160   0.723  0.0316 -0.8483  2.9801
 1097SOL     OW 4740   6.794   6.709   5.223  0.2848  0.2879  0.5034
 1097SOL    HW1 4741   6.756   6.624   5.244 -0.4870  0.3836 -0.4396
 1097SOL    HW2 4742   6.754   6.733   5.139  1.4774  0.9759  0.1055
 1098SOL     OW 4743   1.091   2.978   0.298  0.4178 -0.1264 -0.2091
 1098SOL    HW1 4744   1.006   3.007   0.330  0.9113 -0.0014  1.0628
 1098SOL    HW2 4745   1.087   2.883   0.301  0.1363 -0.1327 -0.6885
 1099SOL     OW 4746   2.876   5.450   1.732  0.2834 -0.1718 -0.2503
 1099SOL    HW1 4747   2.888   5.472   1.824  0.2036  0.3450 -0.3624
 1099SOL    HW2 4748   2.906   5.359   1.725  1.1976  0.0866  0.0961
 1100SOL     OW 4749   1.579   1.690   0.007  0.6496  0.8037 -0.1987
 1100SOL    HW1 4750   1.547   1.780   0.011 -0.3844  0.4089  1.3769
 1100SOL    HW2 4751   1.566   1.663  -0.084 -0.7573  1.6633 -0.2785
 1101SOL     OW 4752   6.053   1.025   6.907 -0.2308  0.2929  0.0692
 1101SOL    HW1 4753   6.045   1.000   6.999 -0.7434 -0.2313 -0.1105
 1101SOL    HW2 4754   5.995   0.964   6.861 -1.7387  1.9943 -0.3746
 1102SOL     OW 4755   1.270   6.945   6.350 -0.0598 -0.4189  0.2198
 1102SOL    HW1 4756   1.256   6.903   6.265  0.3209 -0.7493  0.3115
 1102SOL    HW2 4757   1.339   7.009   6.334  0.2321 -0.6984  0.3418
 1103SOL     OW 4758   4.522   1.863   5.732  0.0437  0.1882 -0.4844
 1103SOL    HW1 4759   4.576   1.797   5.775  0.0354 -1.1897 -2.4798
 1103SOL    HW2 4760   4.582   1.906   5.670 -0.1612  1.5070  0.1965
 1104SOL     OW 4761   0.057   2.115   5.829  0.5629 -0.2625 -0.0600
 1104SOL    HW1 4762  -0.034   2.141   5.839  0.8010  0.3392  0.6649
 1104SOL    HW2 4763   0.082   2.146   5.743  0.4963  0.8737  0.3149
 1105SOL     OW 4764   3.083   3.838   6.618  0.5060  0.3258 -0.1701
 1105SOL    HW1 4765   3.167   3.855   6.660  0.9562 -0.8547 -0.5515
 1105SOL    HW2 4766   3.104   3.781   6.544 -0.6679 -0.2471 -0.0857
 1106SOL     OW 4767   5.512   3.618   6.425  0.6199 -0.5796 -0.1442
 1106SOL    HW1 4768   5.455   3.648   6.354  0.2067 -1.6447 -0.2765
 1106SOL    HW2 4769   5.461   3.631   6.504  1.1585  0.8060  0.0192
 1107SOL     OW 4770   1.332   1.701   5.779 -0.3643  0.1972  0.3698
 1107SOL    HW1 4771   1.282   1.738   5.852  0.8471  3.1385 -0.1248
 1107SOL    HW2 4772   1.300   1.747   5.702  0.3388 -0.7670 -0.5272
 1108SOL     OW 4773   6.956   3.569   0.651 -0.1268  0.1414  0.8731
 1108SOL    HW1 4774   7.018   3.634   0.617  0.0371 -0.1656  0.5756
 1108SOL    HW2 4775   7.009   3.489   0.660 -0.9236 -0.7220 -1.3719
 1109SOL     OW 4776   2.175   3.776   3.879  0.5820  0.1683 -0.0643
 1109SOL    HW1 4777   2.124   3.765   3.799 -1.5702  2.2209  0.9082
 1109SOL    HW2 4778   2.118   3.740   3.948  1.4965  0.3401  0.7976
 1110SOL     OW 4779   2.414   5.391   2.110 -0.0502 -0.4053 -0.1821
 1110SOL    HW1 4780   2.384   5.302   2.092 -0.0706 -0.4444  0.0412
 1110SOL    HW2 4781   2.341   5.431   2.158  0.0449 -0.3365 -0.0942
 1111SOL     OW 4782   1.541   6.298   3.032  0.1797  0.6785 -0.6188
 1111SOL    HW1 4783   1.613   6.306   2.969  0.3389 -2.6486 -1.0436
 1111SOL    HW2 4784   1.465   6.276   2.978  0.3244 -2.2596  0.2288
 1112SOL     OW 4785   0.449   3.088   5.314 -0.2778  0.0073 -1.3120
 1112SOL    HW1 4786   0.367   3.121   5.352 -0.4355  0.0910 -1.7189
 1112SOL    HW2 4787   0.451   3.124   5.225 -0.9583 -1.8657 -2.1464
 1113SOL     OW 4788   4.117   2.679   5.103  0.2685 -0.3380  0.4750
 1113SOL    HW1 4789   4.121   2.658   5.196  0.0884  1.3838  0.8986
 1113SOL    HW2 4790   4.103   2.774   5.100 -1.3122 -0.5703 -1.2857
 1114SOL     OW 4791   3.271   1.593   0.040 -0.1734 -0.4109 -0.5195
 1114SOL    HW1 4792   3.196   1.653   0.039 -0.2771 -0.4901  0.6706
 1114SOL    HW2 4793   3.249   1.525  -0.023  0.0473  0.8954 -2.0770
 1115SOL     OW 4794   4.403   1.415   3.170  0.2194 -0.0115 -0.3637
 1115SOL    HW1 4795   4.316   1.383   3.149  0.5830 -0.5975 -1.0357
 1115SOL    HW2 4796   4.461   1.368   3.109  0.9623  0.6043 -0.1452
 1116SOL     OW 4797   6.143   6.751   6.285  0.3418  0.5924  0.3452
 1116SOL    HW1 4798   6.225   6.767   6.239 -0.5467  4.1788 -0.3021
 1116SOL    HW2 4799   6.075   6.769   6.219 -0.9831  0.5430  1.6412
 1117SOL     OW 4800   4.581   1.038   6.033  0.1379  0.3909  0.3610
 1117SOL    HW1 4801   4.573   0.956   6.082  1.1733 -0.5360 -0.9443
 1117SOL    HW2 4802   4.517   1.096   6.073 -0.4662 -0.9777  1.4700
 1118SOL     OW 4803   6.790   2.468   0.780  0.2308 -0.3687  0.2360
 1118SOL    HW1 4804   6.802   2.562   0.762 -0.3952 -0.4925 -0.8825
 1118SOL    HW2 4805   6.801   2.426   0.695  0.1217 -1.2817  0.6696
 1119SOL     OW 4806   1.109   0.871   3.482 -0.0024  0.0973  0.5329
 1119SOL    HW1 4807   1.166   0.819   3.538 -0.1958  1.3647  1.9679
 1119SOL    HW2 4808   1.032   0.890   3.536 -1.5145 -0.9974 -1.1316
 1120SOL     OW 4809   1.749   1.060   2.835 -0.0921 -0.0641 -0.0590
 1120SOL    HW1 4810   1.696   1.031   2.760 -0.5415 -0.2772  0.3350
 1120SOL    HW2 4811   1.807   0.986   2.853 -0.3146 -0.2018  0.1016
 1121SOL     OW 4812   2.527   3.068   6.995  0.1906  0.0937 -0.6551
 1121SOL    HW1 4813   2.467   3.106   6.930 -0.1123  1.0975  0.1778
 1121SOL    HW2 4814   2.514   2.974   6.988 -0.6383  0.2475 -1.3035
 1122SOL     OW 4815   6.882   4.536   3.941 -0.0354  0.2078  0.0277
 1122SOL    HW1 4816   6.976   4.530   3.958  0.1595 -1.4523 -1.3738
 1122SOL    HW2 4817   6.864   4.464   3.880 -2.0217  1.1727 -0.5962
 1123SOL     OW 4818   6.292   4.453   1.963 -0.5863 -0.3136 -0.4523
 1123SOL    HW1 4819   6.273   4.539   1.925 -0.9350 -0.3791 -0.4232
 1123SOL    HW2 4820   6.207   4.418   1.988 -0.3806 -0.3581  0.1995
 1124SOL     OW 4821   3.225   5.456   5.480 -0.3494  0.0325 -0.2587
 1124SOL    HW1 4822   3.278   5.536   5.484 -1.4433  0.7301  0.6941
 1124SOL    HW2 4823   3.203   5.437   5.571  0.9391 -2.1136 -0.3037
 1125SOL     OW 4824   3.323   0.689   5.231 -0.4374  0.3028 -0.2829
 1125SOL    HW1 4825   3.243   0.650   5.196  0.0037  0.3216 -1.3546
 1125SOL    HW2 4826   3.347   0.632   5.304  0.6934 -2.0608 -2.3525
 1126SOL     OW 4827   2.657   6.283   6.754 -0.4177  0.5529 -0.1425
 1126SOL    HW1 4828   2.676   6.274   6.660 -0.7871 -1.3519 -0.0764
 1126SOL    HW2 4829   2.562   6.272   6.760 -0.5127  1.5541  0.3909
 1127SOL     OW 4830   1.199   1.805   6.533 -0.3265 -0.8201  0.1678
 1127SOL    HW1 4831   1.160   1.884   6.496  1.1492  0.7658  1.7996
 1127SOL    HW2 4832   1.271   1.783   6.473 -0.1217 -0.3142  0.2217
 1128SOL     OW 4833   2.932   3.083   3.997 -0.2867 -0.3698 -0.2362
 1128SOL    HW1 4834   2.946   3.047   3.910  0.3641 -0.8618  0.0556
 1128SOL    HW2 4835   2.944   3.008   4.056  0.0447  0.1097  0.3181
 1129SOL     OW 4836   2.987   4.829   4.227  0.5800 -0.7810  0.2996
 1129SOL    HW1 4837   2.964   4.777   4.150  1.0630 -1.9878  0.9445
 1129SOL    HW2 4838   3.078   4.806   4.246  1.3328  1.4647 -0.2830
 1130SOL     OW 4839   4.430   3.428   4.581  0.0010 -0.0766 -0.2964
 1130SOL    HW1 4840   4.515   3.425   4.537 -0.0763 -0.9950 -0.3912
 1130SOL    HW2 4841   4.451   3.420   4.674 -0.0449 -1.4675 -0.3921
 1131SOL     OW 4842   2.592   2.780   5.832  0.0459  0.0096 -0.1849
 1131SOL    HW1 4843   2.566   2.690   5.811  0.3341 -0.2488  0.5141
 1131SOL    HW2 4844   2.664   2.769   5.894  1.0749  0.7069 -1.2130
 1132SOL     OW 4845   1.809   2.186   4.370 -0.4088  0.1135  0.4661
 1132SOL    HW1 4846   1.715   2.168   4.380 -0.1909 -0.8756  0.8548
 1132SOL    HW2 4847   1.819   2.276   4.401 -1.2672  0.3208  0.1756
 1133SOL     OW 4848   1.822   2.143   3.434  0.1720 -0.3976  0.2081
 1133SOL    HW1 4849   1.772   2.104   3.505  0.4636 -1.8793 -0.3667
 1133SOL    HW2 4850   1.761   2.148   3.361  0.2345 -0.1055  0.1749
 1134SOL     OW 4851   3.405   3.015   2.159  0.0271  0.0792 -0.3732
 1134SOL    HW1 4852   3.499   2.997   2.166  0.0173 -0.5139 -1.5461
 1134SOL    HW2 4853   3.386   3.069   2.236  0.9275 -1.3532  0.9300
 1135SOL     OW 4854   0.536   6.682   1.835 -0.2297  0.0448  0.0379
 1135SOL    HW1 4855   0.500   6.685   1.924 -3.3182  1.1810 -1.1301
 1135SOL    HW2 4856   0.590   6.761   1.828 -0.6768  0.4110  0.6312
 1136SOL     OW 4857   4.601   0.838   5.522 -0.0686  0.0652  0.4126
 1136SOL    HW1 4858   4.659   0.768   5.554  1.8879  1.7659  0.7690
 1136SOL    HW2 4859   4.535   0.848   5.590  0.0634 -0.9190  0.6985
 1137SOL     OW 4860   4.783   4.288   1.755  0.0424 -0.4273  0.3783
 1137SOL    HW1 4861   4.829   4.262   1.835 -0.9891  1.6553  1.7342
 1137SOL    HW2 4862   4.691   4.278   1.776 -0.2748  1.0347 -0.1964
 1138SOL     OW 4863   1.000   1.023   6.033  0.2472 -0.7689 -0.2827
 1138SOL    HW1 4864   0.935   1.076   5.985  1.3050  0.0767 -0.8426
 1138SOL    HW2 4865   1.058   0.990   5.964  2.0432  0.8063  0.3943
 1139SOL     OW 4866   2.690   2.665   5.006 -0.6776  0.2679  0.1151
 1139SOL    HW1 4867   2.783   2.691   5.002 -0.3132 -1.1126 -1.4847
 1139SOL    HW2 4868   2.648   2.736   5.054  1.1367  1.1519  0.4993
 1140SOL     OW 4869   5.333   4.811   6.571 -0.2944  0.2196  0.4191
 1140SOL    HW1 4870   5.384   4.736   6.600 -1.6878 -1.5133 -1.3258
 1140SOL    HW2 4871   5.267   4.774   6.512 -1.5552  2.7264  0.1053
 1141SOL     OW 4872   0.199   6.305   6.360  0.3735 -0.2465  0.6562
 1141SOL    HW1 4873   0.130   6.365   6.331  0.5763  0.2820  1.2337
 1141SOL    HW2 4874   0.153   6.240   6.413  0.1729 -0.5099  0.1595
 1142SOL     OW 4875   3.941   3.139   0.151 -0.5308 -0.0684  0.1774
 1142SOL    HW1 4876   3.999   3.206   0.115 -0.1508 -0.1963  0.5425
 1142SOL    HW2 4877   3.939   3.071   0.085  0.1933 -0.3178  0.4023
 1143SOL     OW 4878   1.658   5.310   3.341  0.5846 -0.0856  0.6456
 1143SOL    HW1 4879   1.631   5.239   3.399  1.8353 -0.3528  0.9314
 1143SOL    HW2 4880   1.623   5.390   3.381 -0.8448 -0.5127  0.3153
 1144SOL     OW 4881   3.780   2.364   0.351 -0.2432  0.4782 -0.1843
 1144SOL    HW1 4882   3.707   2.372   0.289 -1.4110  2.0732  1.2692
 1144SOL    HW2 4883   3.745   2.399   0.433  2.0196  0.8466  0.7052
 1145SOL     OW 4884   5.493   6.908   3.043  0.3345  0.1291  0.2948
 1145SOL    HW1 4885   5.433   6.857   3.097  1.2568  0.6718  1.8720
 1145SOL    HW2 4886   5.545   6.842   2.997 -3.0841 -0.4964 -3.2735
 1146SOL     OW 4887   6.092   6.269   1.348  0.0650 -0.1215 -0.2144
 1146SOL    HW1 4888   6.057   6.349   1.309  0.2687  0.1822  0.2154
 1146SOL    HW2 4889   6.026   6.244   1.412 -0.2958 -0.6514 -0.7856
 1147SOL     OW 4890   3.313   5.386   4.655  0.5118  0.0729 -0.3265
 1147SOL    HW1 4891   3.294   5.431   4.572 -0.1217  0.5027  0.0435
 1147SOL    HW2 4892   3.308   5.293   4.633 -0.1169  0.1827 -0.6718
 1148SOL     OW 4893   3.919   2.938   4.986 -0.2399  0.3912 -0.9539
 1148SOL    HW1 4894   3.849   2.992   5.025 -0.8341 -0.6458 -0.5382
 1148SOL    HW2 4895   3.995   2.954   5.043 -0.5809  0.3281 -0.4683
 1149SOL     OW 4896   4.016   6.281   1.948 -0.1490 -0.3588  0.0816
 1149SOL    HW1 4897   3.988   6.240   1.866 -1.7208  0.1202  0.3413
 1149SOL    HW2 4898   4.048   6.208   2.001  0.8577 -0.6759 -0.9296
 1150SOL     OW 4899   0.916   0.476   2.929  1.0130  0.0758 -0.2440
 1150SOL    HW1 4900   0.911   0.569   2.907  1.4940 -0.1535 -1.4107
 1150SOL    HW2 4901   0.832   0.457   2.970  1.1874  1.1786  0.6828
 1151SOL     OW 4902   3.779   4.798   1.148 -0.0943  0.4495  0.0605
 1151SOL    HW1 4903   3.845   4.744   1.106 -1.6383 -1.8727  0.4213
 1151SOL    HW2 4904   3.711   4.736   1.175 -1.6547  2.5108  1.1623
 1152SOL     OW 4905   1.397   1.931   7.077  0.0237  0.0474 -0.4574
 1152SOL    HW1 4906   1.348   1.858   7.038 -1.5311  0.2830  0.9459
 1152SOL    HW2 4907   1.377   2.006   7.021 -1.3141  0.1468  0.1028
 1153SOL     OW 4908   0.924   2.051   6.713  0.2426  0.2956 -0.0749
 1153SOL    HW1 4909   0.936   1.978   6.774 -1.5931  0.4191  0.5057
 1153SOL    HW2 4910   0.858   2.106   6.754 -1.8031 -0.1097 -2.5410
 1154SOL     OW 4911   2.436   0.065   6.241 -0.4352  1.0000  0.5736
 1154SOL    HW1 4912   2.398   0.153   6.238 -2.1003  0.3046 -0.0632
 1154SOL    HW2 4913   2.417   0.027   6.155 -2.0871 -0.8676  1.6636
 1155SOL     OW 4914   5.031   3.693   1.870  0.2055  0.5955 -0.5965
 1155SOL    HW1 4915   5.091   3.693   1.796  0.2762 -1.8639 -0.6273
 1155SOL    HW2 4916   4.945   3.706   1.831  0.1624 -1.3635 -1.2655
 1156SOL     OW 4917   3.288   0.218   3.739  0.4720  0.5814 -0.6792
 1156SOL    HW1 4918   3.361   0.158   3.755 -0.1192 -0.1661 -0.7805
 1156SOL    HW2 4919   3.325   0.285   3.681  1.1708  0.4026 -0.4587
 1157SOL     OW 4920   4.463   4.152   4.179  0.0043 -0.1380  0.3547
 1157SOL    HW1 4921   4.536   4.184   4.127  0.1675  1.0902  1.3061
 1157SOL    HW2 4922   4.485   4.177   4.269 -2.3255  1.7115  0.4854
 1158SOL     OW 4923   3.158   0.849   4.447 -0.0977 -0.2676 -0.9414
 1158SOL    HW1 4924   3.073   0.869   4.486  0.5136 -1.2047  0.9917
 1158SOL    HW2 4925   3.158   0.754   4.436  1.4298 -0.6018  1.1197
 1159SOL     OW 4926   0.891   3.466   2.522  0.0797  1.4268  0.3508
 1159SOL    HW1 4927   0.869   3.403   2.453  0.6394  2.8016 -1.1522
 1159SOL    HW2 4928   0.922   3.412   2.594 -0.2449 -0.0666 -0.5739
 1160SOL     OW 4929   0.753   6.592   0.640 -0.4872  0.3442  0.5811
 1160SOL    HW1 4930   0.726   6.673   0.597  0.0871  0.4754  0.4734
 1160SOL    HW2 4931   0.769   6.618   0.731  0.3018  0.4773  0.4063
 1161SOL     OW 4932   4.473   2.637   3.249  0.2095  0.0399 -0.0661
 1161SOL    HW1 4933   4.475   2.541   3.253  0.2310 -0.0189 -1.1006
 1161SOL    HW2 4934   4.405   2.656   3.184 -1.5672  0.7996  1.9033
 1162SOL     OW 4935   1.756   2.433   5.421 -0.4228  0.4120 -0.5301
 1162SOL    HW1 4936   1.831   2.485   5.450  0.5826 -0.8032 -0.8535
 1162SOL    HW2 4937   1.690   2.498   5.396  1.0067  1.5595 -1.5283
 1163SOL     OW 4938   4.621   2.079   0.370  0.4145  0.1838 -0.5971
 1163SOL    HW1 4939   4.657   2.153   0.322 -0.2007  0.6312 -0.3885
 1163SOL    HW2 4940   4.528   2.078   0.346  0.0690  0.4952  0.6649
 1164SOL     OW 4941   1.820   4.849   2.717  0.3895 -0.1138 -0.4008
 1164SOL    HW1 4942   1.783   4.887   2.796  0.8309 -0.3415 -0.0734
 1164SOL    HW2 4943   1.752   4.790   2.684  1.0358 -1.8530  1.1456
 1165SOL     OW 4944   0.937   3.948   2.536 -0.4501 -0.1596 -0.1249
 1165SOL    HW1 4945   0.880   3.929   2.611 -0.6976  1.4761  0.1534
 1165SOL    HW2 4946   0.984   3.867   2.520 -1.2599 -0.8930  1.0530
 1166SOL     OW 4947   4.092   1.878   0.075  0.1073  0.3425 -0.1541
 1166SOL    HW1 4948   4.117   1.872   0.167 -0.7679 -0.6223  0.0418
 1166SOL    HW2 4949   4.059   1.967   0.064 -0.5297  0.2174  0.6660
 1167SOL     OW 4950   0.898   6.898   6.053  0.5161 -0.2784  0.4047
 1167SOL    HW1 4951   0.964   6.928   6.116 -0.0774 -0.3619  1.0782
 1167SOL    HW2 4952   0.839   6.972   6.044  1.4278  0.3044 -1.2438
 1168SOL     OW 4953   1.628   4.740   0.878  0.1251 -0.5343  0.1493
 1168SOL    HW1 4954   1.606   4.815   0.933  0.0985 -0.9901  0.7659
 1168SOL    HW2 4955   1.547   4.689   0.873  0.0487 -0.3546 -0.5450
 1169SOL     OW 4956   1.625   4.042   3.394 -0.0120  0.4387 -0.5918
 1169SOL    HW1 4957   1.714   4.078   3.400  0.7913 -1.4482 -0.4337
 1169SOL    HW2 4958   1.613   4.021   3.301  0.7074 -1.5337 -0.2998
 1170SOL     OW 4959   4.382   5.606   5.621  0.0334 -0.4522 -0.3864
 1170SOL    HW1 4960   4.309   5.662   5.594  0.4364  0.5417  0.5237
 1170SOL    HW2 4961   4.369   5.594   5.716  1.7095  0.7752  0.0436
 1171SOL     OW 4962   4.642   5.672   2.504  0.3233  0.0794  0.6976
 1171SOL    HW1 4963   4.588   5.667   2.583 -0.1352  2.2420  0.5744
 1171SOL    HW2 4964   4.729   5.696   2.536  0.0529  1.3129  0.5445
 1172SOL     OW 4965   6.239   3.889   0.712 -0.0333  0.0809 -0.0218
 1172SOL    HW1 4966   6.177   3.960   0.692 -1.4900 -0.9899  0.5318
 1172SOL    HW2 4967   6.186   3.822   0.755  1.3651 -1.2364 -0.2594
 1173SOL     OW 4968   4.615   4.454   5.019  0.0731 -0.0527 -0.3856
 1173SOL    HW1 4969   4.677   4.381   5.025  1.9655  1.5929  1.5246
 1173SOL    HW2 4970   4.592   4.474   5.109 -1.1332  1.1823 -0.9297
 1174SOL     OW 4971   1.532   1.025   2.141  0.2598 -0.2154  0.0812
 1174SOL    HW1 4972   1.506   1.072   2.062 -0.6582 -0.5721  0.1616
 1174SOL    HW2 4973   1.534   0.933   2.114  0.6044 -0.2767  0.3069
 1175SOL     OW 4974   2.718   5.535   3.935  0.2101 -0.4125 -0.0697
 1175SOL    HW1 4975   2.696   5.483   3.858  0.6278 -1.3265  0.4058
 1175SOL    HW2 4976   2.812   5.521   3.947  0.2503  0.1382  0.3027
 1176SOL     OW 4977   0.557   4.993   2.569  0.4828 -0.1679 -0.7968
 1176SOL    HW1 4978   0.495   4.922   2.551  1.0395 -0.4835 -1.5371
 1176SOL    HW2 4979   0.640   4.948   2.586  0.6405  0.2726 -0.3913
 1177SOL     OW 4980   3.264   6.828   5.196 -0.6258 -0.5380 -0.1775
 1177SOL    HW1 4981   3.339   6.781   5.231  1.2664  2.1265 -0.3135
 1177SOL    HW2 4982   3.216   6.859   5.273 -0.4168 -0.5456 -0.0441
 1178SOL     OW 4983   4.325   1.693   3.928 -0.1602  0.0086 -0.0198
 1178SOL    HW1 4984   4.369   1.769   3.965  0.0427  0.3852 -1.0058
 1178SOL    HW2 4985   4.238   1.695   3.967  0.5660 -0.6129  1.7765
 1179SOL     OW 4986   0.625   6.977   2.878  0.5959 -0.2500 -0.0103
 1179SOL    HW1 4987   0.544   6.931   2.857  0.5107 -0.1985  0.2067
 1179SOL    HW2 4988   0.675   6.914   2.930  0.8674 -0.4296 -0.4784
 1180SOL     OW 4989   5.250   6.048   3.406  0.5064  0.1407  0.3621
 1180SOL    HW1 4990   5.228   6.065   3.498  0.1856 -1.3465  0.5884
 1180SOL    HW2 4991   5.325   5.989   3.410  0.7516  0.3972 -0.3426
 1181SOL     OW 4992   5.196   4.562   6.433 -0.1270  0.5691  0.0885
 1181SOL    HW1 4993   5.174   4.511   6.356  1.6443 -0.7354  0.3957
 1181SOL    HW2 4994   5.111   4.581   6.474 -1.0374  0.6381 -1.7321
 1182SOL     OW 4995   6.291   1.171   2.237 -0.0219  0.1012 -0.1829
 1182SOL    HW1 4996   6.280   1.157   2.143 -0.6142  1.0741 -0.2727
 1182SOL    HW2 4997   6.224   1.116   2.278  1.5187 -1.8900 -0.1932
 1183SOL     OW 4998   5.942   3.520   5.110 -0.2025  0.1712 -0.0992
 1183SOL    HW1 4999   6.015   3.525   5.172 -0.6348 -0.2422  0.4587
 1183SOL    HW2 5000   5.984   3.518   5.024  0.4215  0.4584  0.1890
 1184SOL     OW 5001   0.196   0.829   4.847  0.3012 -0.0131  0.1161
 1184SOL    HW1 5002   0.187   0.734   4.838  0.1799 -0.0150  0.2720
 1184SOL    HW2 5003   0.109   0.864   4.827 -0.1206 -0.0461  1.8131
 1185SOL     OW 5004   2.264   6.384   1.876  0.0925 -0.4021  0.6092
 1185SOL    HW1 5005   2.259   6.309   1.935  1.0841 -0.1319  1.0703
 1185SOL    HW2 5006   2.320   6.447   1.922  1.4161 -0.4288 -0.8748
 1186SOL     OW 5007   3.512   0.675   6.172 -0.7722 -0.1105  0.5958
 1186SOL    HW1 5008   3.584   0.691   6.233  0.8993 -1.4174 -0.8976
 1186SOL    HW2 5009   3.438   0.724   6.208  0.8755  1.3907  2.1462
 1187SOL     OW 5010   2.336   5.940   6.298  0.0503  0.4246  0.6073
 1187SOL    HW1 5011   2.245   5.958   6.277  0.4052  3.2270  1.0566
 1187SOL    HW2 5012   2.333   5.868   6.362 -1.8740  0.9420  1.1439
 1188SOL     OW 5013   1.359   1.783   5.204 -0.7245  0.5907  0.4011
 1188SOL    HW1 5014   1.322   1.701   5.171  0.5258 -0.4035  1.3798
 1188SOL    HW2 5015   1.428   1.805   5.141 -0.3047  0.2683  0.7406
 1189SOL     OW 5016   1.854   0.104   1.179  0.2925  0.0848  0.0669
 1189SOL    HW1 5017   1.882   0.196   1.177 -2.2248  0.9800  1.1376
 1189SOL    HW2 5018   1.771   0.103   1.132  0.4159 -1.7250 -0.1837
 1190SOL     OW 5019   2.175   6.720   2.930 -0.0825  0.2061 -0.1075
 1190SOL    HW1 5020   2.194   6.629   2.951 -1.7869 -0.3921 -0.9379
 1190SOL    HW2 5021   2.080   6.728   2.938  0.2477  3.3674  5.3571
 1191SOL     OW 5022   6.055   5.639   5.926  0.5238 -0.0041 -0.5865
 1191SOL    HW1 5023   6.014   5.556   5.904 -1.6245  0.9522 -0.4232
 1191SOL    HW2 5024   6.061   5.639   6.021  0.7767 -0.0741 -0.6005
 1192SOL     OW 5025   1.384   2.823   0.465  0.1320 -0.7727 -0.4049
 1192SOL    HW1 5026   1.321   2.844   0.396  1.0117 -1.3147 -1.3942
 1192SOL    HW2 5027   1.354   2.738   0.499 -0.7829 -0.1263  0.4896
 1193SOL     OW 5028   2.932   1.026   6.615 -0.0968 -0.8182 -0.2946
 1193SOL    HW1 5029   3.022   0.994   6.621 -0.2212 -1.2672 -0.7527
 1193SOL    HW2 5030   2.889   0.993   6.693  0.6440  1.1130  1.0145
 1194SOL     OW 5031   3.006   6.350   1.894 -0.6489  0.1786 -0.0876
 1194SOL    HW1 5032   3.045   6.368   1.980 -0.6668  0.6619 -0.1777
 1194SOL    HW2 5033   2.939   6.418   1.884 -0.0987  0.6113 -0.8336
 1195SOL     OW 5034   3.888   3.812   0.267 -0.2359 -0.3041  0.3272
 1195SOL    HW1 5035   3.859   3.752   0.336 -1.2961 -0.3448 -0.1491
 1195SOL    HW2 5036   3.921   3.888   0.315 -1.8167  0.0585  0.8776
 1196SOL     OW 5037   5.040   0.921   6.435 -0.6213  0.0806 -0.5484
 1196SOL    HW1 5038   5.011   0.866   6.507 -2.4686  1.6725  0.0280
 1196SOL    HW2 5039   5.047   0.861   6.360 -2.1281 -1.0385  0.1454
 1197SOL     OW 5040   3.069   5.990   2.001  0.6457 -0.0821  0.4241
 1197SOL    HW1 5041   3.051   6.033   1.918  1.1066 -0.1929  0.2651
 1197SOL    HW2 5042   2.984   5.953   2.028 -0.3526  2.8526  1.7078
 1198SOL     OW 5043   2.489   2.268   5.276 -0.0366  0.2468 -0.0059
 1198SOL    HW1 5044   2.538   2.197   5.236  0.4195  0.0165  0.9356
 1198SOL    HW2 5045   2.444   2.228   5.349 -1.8286  0.4156 -0.9671
 1199SOL     OW 5046   6.348   4.776   4.941 -0.0764 -0.2907  0.0024
 1199SOL    HW1 5047   6.322   4.711   5.006 -2.8616  0.6305 -0.0099
 1199SOL    HW2 5048   6.330   4.860   4.984 -0.5467  0.3578 -1.3898
 1200SOL     OW 5049   5.919   2.551   3.279 -0.5120 -0.6751  0.0988
 1200SOL    HW1 5050   5.918   2.622   3.214 -0.8179 -0.9746 -0.2328
 1200SOL    HW2 5051   5.884   2.590   3.359 -2.0647 -0.8126 -0.4842
 1201SOL     OW 5052   3.129   2.515   4.695 -0.8638 -0.0346 -0.8847
 1201SOL    HW1 5053   3.190   2.564   4.750  0.1719 -1.0749 -1.0460
 1201SOL    HW2 5054   3.089   2.451   4.755 -2.0296  0.8220 -0.7216
 1202SOL     OW 5055   0.631   0.748   6.979  0.8696  0.1633  0.3639
 1202SOL    HW1 5056   0.704   0.728   7.039  0.8898 -1.3597 -0.1256
 1202SOL    HW2 5057   0.573   0.673   6.987  1.4714 -0.6918 -2.3952
 1203SOL     OW 5058   1.955   6.769   4.749  0.1133  0.9689 -0.0573
 1203SOL    HW1 5059   1.934   6.862   4.736 -1.2982  0.4666 -1.9102
 1203SOL    HW2 5060   2.006   6.766   4.830  1.7071  3.5656 -0.8415
 1204SOL     OW 5061   5.776   6.991   0.185  0.0097  0.3559  0.2619
 1204SOL    HW1 5062   5.736   6.920   0.134 -0.2152  0.8598 -0.2743
 1204SOL    HW2 5063   5.712   7.009   0.255 -0.2573  0.5060 -0.0188
 1205SOL     OW 5064   3.729   6.613   4.183 -0.5232 -0.1442 -0.1874
 1205SOL    HW1 5065   3.749   6.520   4.174  0.6960 -0.1231  1.6949
 1205SOL    HW2 5066   3.787   6.643   4.253 -0.6918  2.1081 -0.9465
 1206SOL     OW 5067   1.647   5.942   6.613  0.1198 -0.0499  0.1988
 1206SOL    HW1 5068   1.554   5.924   6.631 -0.6806  0.6337 -2.7336
 1206SOL    HW2 5069   1.666   5.891   6.534  2.8097 -1.5327  1.6527
 1207SOL     OW 5070   5.800   6.642   5.574 -0.1717 -0.0728 -0.0024
 1207SOL    HW1 5071   5.761   6.606   5.654  0.6092  0.2890  0.5471
 1207SOL    HW2 5072   5.886   6.601   5.568  0.5035  1.2366  0.3208
 1208SOL     OW 5073   1.713   4.550   1.231  0.0360 -0.8922  0.5026
 1208SOL    HW1 5074   1.782   4.490   1.259  1.1721 -0.2126 -0.6789
 1208SOL    HW2 5075   1.756   4.607   1.167 -1.1828  0.6925  1.0219
 1209SOL     OW 5076   6.339   5.546   2.982  0.2232 -0.4311 -0.5247
 1209SOL    HW1 5077   6.295   5.591   2.910 -0.0768  0.0336 -0.0542
 1209SOL    HW2 5078   6.379   5.469   2.941  1.8786  0.9238 -1.6055
 1210SOL     OW 5079   0.429   1.511   1.459  0.0986 -0.2336 -0.1331
 1210SOL    HW1 5080   0.343   1.468   1.457  0.1141 -0.2551 -1.3595
 1210SOL    HW2 5081   0.428   1.562   1.539 -2.7531  3.0907 -1.9953
 1211SOL     OW 5082   0.372   5.098   2.253  0.1097 -0.1284  0.0348
 1211SOL    HW1 5083   0.434   5.024   2.248  0.3141  0.1246 -2.3844
 1211SOL    HW2 5084   0.424   5.174   2.229 -0.0572  0.9340  2.7061
 1212SOL     OW 5085   0.763   4.321   0.186  0.6737 -0.4619  0.2656
 1212SOL    HW1 5086   0.721   4.243   0.224  0.7056 -1.3134 -1.3752
 1212SOL    HW2 5087   0.856   4.299   0.182  0.5571 -0.7501 -1.1176
 1213SOL     OW 5088   5.417   4.236   6.300  0.4465 -0.4260 -0.0339
 1213SOL    HW1 5089   5.441   4.300   6.368 -1.8181 -0.8072  1.2218
 1213SOL    HW2 5090   5.439   4.151   6.338  2.2644 -0.5301 -1.1924
 1214SOL     OW 5091   4.158   5.309   0.133  0.2201 -0.4247 -0.3661
 1214SOL    HW1 5092   4.234   5.272   0.089  0.6143  0.6534 -0.6244
 1214SOL    HW2 5093   4.085   5.292   0.074  0.3003 -1.2214 -0.2444
 1215SOL     OW 5094   3.877   0.379   6.574 -0.1022 -0.5742  0.1231
 1215SOL    HW1 5095   3.891   0.468   6.606  3.4156 -0.7062 -0.6458
 1215SOL    HW2 5096   3.902   0.323   6.647 -2.4726 -1.0447  0.6662
 1216SOL     OW 5097   2.389   6.603   4.396  0.1400  0.0082  0.3190
 1216SOL    HW1 5098   2.301   6.637   4.409 -0.3684 -0.7912 -0.8484
 1216SOL    HW2 5099   2.398   6.594   4.301  1.8624  1.0245  0.3449
 1217SOL     OW 5100   1.182   5.391   6.285 -0.3473  0.1635  0.5030
 1217SOL    HW1 5101   1.091   5.412   6.264 -0.5034  0.6379  1.6169
 1217SOL    HW2 5102   1.208   5.457   6.348  1.0944  0.6300 -0.5318
 1218SOL     OW 5103   5.920   5.543   5.330  0.1705  0.2621  0.0996
 1218SOL    HW1 5104   5.913   5.449   5.342  2.9161 -0.1031 -0.6199
 1218SOL    HW2 5105   6.014   5.560   5.320 -0.2968  2.9801 -0.5832
 1219SOL     OW 5106   0.509   1.720   1.312  0.1403  0.2092  0.2092
 1219SOL    HW1 5107   0.474   1.634   1.332  0.1310  0.3079  0.6335
 1219SOL    HW2 5108   0.571   1.738   1.383  2.2338 -0.6201 -1.3101
 1220SOL     OW 5109   4.246   1.699   5.701 -0.1780 -0.5027  0.1469
 1220SOL    HW1 5110   4.333   1.670   5.726 -0.6916 -1.6483  0.6633
 1220SOL    HW2 5111   4.224   1.647   5.624 -0.0875  0.3708 -0.4853
 1221SOL     OW 5112   5.301   0.122   0.746  0.8007  0.4451 -0.7096
 1221SOL    HW1 5113   5.392   0.096   0.761  1.1350  1.1935 -1.3632
 1221SOL    HW2 5114   5.308   0.207   0.702 -0.2322  0.9031 -0.0119
 1222SOL     OW 5115   0.044   1.425   0.016  0.3460 -0.0584 -0.0508
 1222SOL    HW1 5116   0.099   1.499  -0.008  0.7981 -0.4311 -0.1852
 1222SOL    HW2 5117   0.098   1.348  -0.002  0.9150 -0.3675  2.6278
 1223SOL     OW 5118   0.244   3.539   4.909  0.1410 -0.2776  0.7886
 1223SOL    HW1 5119   0.270   3.630   4.894 -2.5359  0.3013 -1.1106
 1223SOL    HW2 5120   0.287   3.515   4.991  2.1853  2.1633  0.5410
 1224SOL     OW 5121   6.606   6.563   2.499  0.4671  0.1485  0.0302
 1224SOL    HW1 5122   6.688   6.612   2.492  0.6452 -0.1612 -0.0701
 1224SOL    HW2 5123   6.564   6.599   2.577 -0.5409  2.1479 -1.3307
 1225SOL     OW 5124   4.829   1.537   6.726  0.4967  0.2894 -0.4677
 1225SOL    HW1 5125   4.853   1.586   6.647  0.3274 -1.3349 -1.5753
 1225SOL    HW2 5126   4.912   1.528   6.774  0.6451  1.0972 -0.5534
 1226SOL     OW 5127   1.675   5.120   0.129  0.2506  0.2838  0.3045
 1226SOL    HW1 5128   1.603   5.107   0.066 -0.5409  0.7783  1.0903
 1226SOL    HW2 5129   1.638   5.094   0.213  1.5573 -1.1503  0.4687
 1227SOL     OW 5130   2.692   1.702   5.654 -0.0919 -0.5751 -0.1195
 1227SOL    HW1 5131   2.681   1.676   5.746  0.1883 -0.7455 -0.1319
 1227SOL    HW2 5132   2.776   1.664   5.629 -0.3574 -0.8833 -0.5688
 1228SOL     OW 5133   4.052   5.752   6.629 -0.2346  0.6348 -0.2035
 1228SOL    HW1 5134   4.117   5.712   6.686 -0.4953  0.1910 -0.2088
 1228SOL    HW2 5135   4.102   5.812   6.573 -0.0248  1.3067  0.6886
 1229SOL     OW 5136   3.038   6.022   0.839 -0.1632 -0.5070  0.1599
 1229SOL    HW1 5137   3.125   6.042   0.875 -0.1156 -1.2517  0.4797
 1229SOL    HW2 5138   3.033   5.926   0.842 -1.9561 -0.4175  2.4440
 1230SOL     OW 5139   6.851   1.611   4.907 -0.3120 -0.3843  0.4925
 1230SOL    HW1 5140   6.937   1.571   4.913  0.0400  0.2317 -0.2300
 1230SOL    HW2 5141   6.869   1.705   4.900 -1.0153 -0.2804 -0.0286
 1231SOL     OW 5142   3.819   4.485   5.943 -0.0945  0.7798  0.2577
 1231SOL    HW1 5143   3.869   4.405   5.960  0.3941  1.4298  2.1684
 1231SOL    HW2 5144   3.859   4.522   5.864  0.4721 -0.2411  0.0497
 1232SOL     OW 5145   5.831   0.765   0.356 -0.1747  0.5200 -0.3859
 1232SOL    HW1 5146   5.890   0.772   0.431 -1.9952  1.8806  1.0466
 1232SOL    HW2 5147   5.888   0.758   0.280  1.8099  1.5731  0.9221
 1233SOL     OW 5148   4.793   2.959   3.030 -0.4205 -0.8772  0.1200
 1233SOL    HW1 5149   4.740   3.018   2.977  1.1037  0.6257  0.1767
 1233SOL    HW2 5150   4.732   2.921   3.093 -1.1592  2.5252  1.7150
 1234SOL     OW 5151   4.740   6.682   3.510  0.1893 -0.9134  0.2911
 1234SOL    HW1 5152   4.741   6.669   3.415 -1.2078  0.2025  0.0857
 1234SOL    HW2 5153   4.793   6.760   3.524  1.4137 -1.7700  0.5886
 1235SOL     OW 5154   5.490   5.006   0.992  1.0592 -0.2364  0.0889
 1235SOL    HW1 5155   5.408   4.968   0.962  1.4263 -1.8853  1.0511
 1235SOL    HW2 5156   5.476   5.101   0.985 -0.3277 -0.4947 -1.2455
 1236SOL     OW 5157   1.487   3.885   0.416  0.5562 -0.4503  0.1617
 1236SOL    HW1 5158   1.421   3.945   0.382  0.6957 -1.2670 -1.6825
 1236SOL    HW2 5159   1.538   3.937   0.478  0.6903  1.3813 -1.3963
 1237SOL     OW 5160   6.927   0.182   0.087 -0.5516  0.1766  0.1897
 1237SOL    HW1 5161   6.874   0.163   0.011 -2.2061 -1.0881  1.5762
 1237SOL    HW2 5162   6.991   0.110   0.091  0.0947  0.6966 -0.4309
 1238SOL     OW 5163   4.031   3.113   0.820  0.0181  0.8403  0.2608
 1238SOL    HW1 5164   3.960   3.095   0.758  0.3545 -0.5291  0.2326
 1238SOL    HW2 5165   4.102   3.147   0.766  0.4042 -0.5975 -0.1905
 1239SOL     OW 5166   5.307   5.621   2.092  0.0521  0.0251  0.6281
 1239SOL    HW1 5167   5.395   5.653   2.075 -0.4045  0.8462 -0.3240
 1239SOL    HW2 5168   5.313   5.579   2.177  0.8699  2.1300  1.7035
 1240SOL     OW 5169   3.915   5.612   3.954 -0.1553  0.3049  0.3189
 1240SOL    HW1 5170   3.842   5.567   3.997 -1.3441  1.3044 -0.5833
 1240SOL    HW2 5171   3.956   5.662   4.025 -0.9283  0.4569  0.6753
 1241SOL     OW 5172   1.109   4.779   6.874 -0.6304  0.0829  0.2145
 1241SOL    HW1 5173   1.072   4.707   6.925  1.5628  0.0128  1.8158
 1241SOL    HW2 5174   1.138   4.739   6.792 -0.6388 -0.5889  0.5401
 1242SOL     OW 5175   2.208   4.782   4.041 -0.4706  0.0797 -0.0543
 1242SOL    HW1 5176   2.300   4.758   4.052 -0.2617  0.9428  0.1758
 1242SOL    HW2 5177   2.209   4.850   3.974 -0.7619  1.1050  0.9452
 1243SOL     OW 5178   2.355   6.530   7.121 -0.2769  0.1318 -0.1641
 1243SOL    HW1 5179   2.348   6.538   7.216 -1.5897  1.3098 -0.3261
 1243SOL    HW2 5180   2.319   6.444   7.101  0.0377 -0.1383  0.4031
 1244SOL     OW 5181   5.357   3.383   0.746 -0.1747  0.8412 -0.4642
 1244SOL    HW1 5182   5.385   3.413   0.660 -1.1082  1.3502 -0.6066
 1244SOL    HW2 5183   5.355   3.288   0.739 -0.5454  0.8914 -1.1085
 1245SOL     OW 5184   0.856   2.123   5.142 -0.1999  0.3812  0.2753
 1245SOL    HW1 5185   0.764   2.148   5.130 -0.1291  0.3690 -0.3008
 1245SOL    HW2 5186   0.871   2.057   5.075  0.2627  0.4622  0.3010
 1246SOL     OW 5187   3.477   4.065   5.946  0.2036  0.3060 -0.3865
 1246SOL    HW1 5188   3.551   4.099   5.895 -0.2277  0.4096 -0.9524
 1246SOL    HW2 5189   3.517   4.030   6.025  0.6381  2.3987  0.3737
 1247SOL     OW 5190   3.684   5.994   3.492 -0.3015 -0.7992  0.6336
 1247SOL    HW1 5191   3.765   6.039   3.513 -0.3237 -0.2421 -0.3919
 1247SOL    HW2 5192   3.696   5.905   3.525  0.8692 -0.8186  0.1918
 1248SOL     OW 5193   5.113   5.822   0.013  0.3821 -0.6936 -0.3470
 1248SOL    HW1 5194   5.034   5.876   0.015  0.4223 -0.6583  0.5255
 1248SOL    HW2 5195   5.088   5.743   0.061  1.3991  0.0495  1.4863
 1249SOL     OW 5196   5.296   6.771   0.516  0.2632  0.5319  0.2548
 1249SOL    HW1 5197   5.276   6.741   0.605 -0.2775  0.7680  0.2174
 1249SOL    HW2 5198   5.320   6.691   0.469 -0.2110  0.2949  0.4098
 1250SOL     OW 5199   3.782   6.125   0.790  0.3874 -0.0114 -0.7089
 1250SOL    HW1 5200   3.790   6.076   0.708  0.7616  0.1768 -0.7911
 1250SOL    HW2 5201   3.816   6.065   0.857  0.1906 -0.1227 -0.7099
 1251SOL     OW 5202   6.353   1.977   6.347 -0.0928  0.1483 -0.5593
 1251SOL    HW1 5203   6.271   1.931   6.331  0.9738 -1.5597 -1.3581
 1251SOL    HW2 5204   6.336   2.067   6.320 -1.7711 -0.1166 -0.4613
 1252SOL     OW 5205   3.487   3.757   4.248  0.0209 -0.0525  0.4347
 1252SOL    HW1 5206   3.567   3.746   4.196 -0.4064 -0.3859 -0.1707
 1252SOL    HW2 5207   3.508   3.827   4.310 -0.0093  1.6300 -1.3497
 1253SOL     OW 5208   2.698   5.994   6.880 -0.4199 -0.3844 -0.4558
 1253SOL    HW1 5209   2.660   6.059   6.821 -0.8840 -0.2684 -0.0442
 1253SOL    HW2 5210   2.791   5.994   6.859 -0.3006  0.8912 -0.0326
 1254SOL     OW 5211   2.096   3.710   3.635  0.2189 -0.0184  0.2585
 1254SOL    HW1 5212   2.102   3.615   3.625  0.3109 -0.0266  0.3869
 1254SOL    HW2 5213   2.163   3.745   3.577  0.0884 -0.0253  0.1019
 1255SOL     OW 5214   6.687   6.095   2.952 -0.2142 -0.2985  0.2454
 1255SOL    HW1 5215   6.606   6.065   2.911 -0.6222 -1.1751  1.6296
 1255SOL    HW2 5216   6.752   6.030   2.925 -0.4764 -0.8603  0.9314
 1256SOL     OW 5217   6.761   1.146   2.519 -0.1551  0.2620 -0.3979
 1256SOL    HW1 5218   6.724   1.151   2.431 -1.0465 -1.5950 -0.1764
 1256SOL    HW2 5219   6.780   1.053   2.532  0.6528  0.6020  1.1034
 1257SOL     OW 5220   4.320   1.971   1.527 -0.2103  0.3884  0.1332
 1257SOL    HW1 5221   4.297   2.048   1.475 -1.7830  0.6407  1.1159
 1257SOL    HW2 5222   4.257   1.971   1.599  0.3005 -1.3465  0.6426
 1258SOL     OW 5223   0.287   1.730   1.151  0.3303 -0.4247 -0.5258
 1258SOL    HW1 5224   0.371   1.745   1.194 -0.7522 -0.1409  1.6724
 1258SOL    HW2 5225   0.288   1.786   1.074  1.6695  0.5360  0.1594
 1259SOL     OW 5226   2.878   3.824   3.683  0.0794 -0.0132  0.3267
 1259SOL    HW1 5227   2.935   3.763   3.731 -0.3392 -0.7927 -0.1370
 1259SOL    HW2 5228   2.932   3.901   3.667  0.9898 -0.7219 -0.0601
 1260SOL     OW 5229   6.746   6.333   3.709  0.4235 -0.8215 -0.1307
 1260SOL    HW1 5230   6.686   6.404   3.730  1.1217 -0.2658  0.0425
 1260SOL    HW2 5231   6.709   6.292   3.632 -0.6245 -1.0320  0.4758
 1261SOL     OW 5232   3.834   0.745   5.634 -0.3975  0.3361 -0.4513
 1261SOL    HW1 5233   3.875   0.660   5.616  0.7818  0.9365 -0.7202
 1261SOL    HW2 5234   3.743   0.734   5.606  0.5302  0.2058 -3.9200
 1262SOL     OW 5235   6.049   6.172   2.132  0.2555  0.1170 -0.1031
 1262SOL    HW1 5236   5.958   6.168   2.161  0.4881  1.0282  0.8274
 1262SOL    HW2 5237   6.056   6.256   2.087  0.4422 -0.3230 -0.9079
 1263SOL     OW 5238   6.097   0.188   3.990 -0.4395  0.1915 -0.1473
 1263SOL    HW1 5239   6.087   0.093   3.997  0.6758 -0.1087 -1.9695
 1263SOL    HW2 5240   6.091   0.219   4.080 -1.2472 -1.5529  0.4524
 1264SOL     OW 5241   5.694   3.752   4.752 -0.5692 -0.6098 -0.0434
 1264SOL    HW1 5242   5.770   3.709   4.713 -0.1184  0.4642 -0.3652
 1264SOL    HW2 5243   5.690   3.715   4.841  0.4623 -0.5303  0.0562
 1265SOL     OW 5244   0.583   5.447   4.365 -0.3724  0.1115 -0.1739
 1265SOL    HW1 5245   0.608   5.517   4.305  0.4186 -0.0865 -0.0858
 1265SOL    HW2 5246   0.530   5.490   4.432  2.3193  1.1908  1.4102
 1266SOL     OW 5247   4.844   5.426   5.950  0.7040  0.3488  0.6159
 1266SOL    HW1 5248   4.819   5.474   5.871 -1.7055  0.5882  1.4499
 1266SOL    HW2 5249   4.880   5.343   5.917 -0.2429  0.4432 -0.7559
 1267SOL     OW 5250   4.073   1.883   5.813 -0.5376 -0.4015 -0.7355
 1267SOL    HW1 5251   4.124   1.818   5.765 -1.6907 -0.7953 -1.4661
 1267SOL    HW2 5252   4.027   1.932   5.746  0.5749  1.4319 -0.2097
 1268SOL     OW 5253   2.705   7.124   1.546  0.4814 -1.0330 -0.7063
 1268SOL    HW1 5254   2.649   7.199   1.564  0.7635 -0.9054 -0.3401
 1268SOL    HW2 5255   2.682   7.097   1.458  0.0250 -0.8245 -0.6517
 1269SOL     OW 5256   2.464   3.310   5.618  0.4039 -0.0663 -0.0048
 1269SOL    HW1 5257   2.531   3.275   5.559 -0.7763  0.4475 -1.7338
 1269SOL    HW2 5258   2.407   3.235   5.637 -0.7454  0.2734 -1.7730
 1270SOL     OW 5259   6.136   0.825   5.600 -0.1812  0.0564  0.4694
 1270SOL    HW1 5260   6.152   0.902   5.545 -0.0531  0.4176  0.9966
 1270SOL    HW2 5261   6.052   0.843   5.643  0.1585  0.2126  1.0896
 1271SOL     OW 5262   0.384   2.387   5.404 -0.0335 -0.2965 -0.0838
 1271SOL    HW1 5263   0.456   2.346   5.453  0.5767 -0.9054 -1.4232
 1271SOL    HW2 5264   0.426   2.425   5.328 -0.9667  0.5787 -0.1748
 1272SOL     OW 5265   5.931   2.965   2.024  0.1120 -0.6000 -0.5705
 1272SOL    HW1 5266   5.842   2.951   2.055  0.0153 -0.3286 -0.7218
 1272SOL    HW2 5267   5.922   3.027   1.952  0.2775 -1.6440 -1.5114
 1273SOL     OW 5268   2.768   4.952   1.267  0.3351 -0.1370  0.3807
 1273SOL    HW1 5269   2.681   4.966   1.304  0.3674 -1.6470  1.0694
 1273SOL    HW2 5270   2.820   5.026   1.300 -0.5455  0.5027  0.3688
 1274SOL     OW 5271   4.058   0.489   5.902 -0.3042 -0.6989 -0.1395
 1274SOL    HW1 5272   4.045   0.581   5.925 -0.8595 -0.1162 -2.5309
 1274SOL    HW2 5273   3.972   0.450   5.912 -0.3140 -0.6964 -0.2164
 1275SOL     OW 5274   4.620   4.701   0.579  0.1171  0.3919 -0.2366
 1275SOL    HW1 5275   4.525   4.694   0.573 -0.0579  1.2898  0.9875
 1275SOL    HW2 5276   4.649   4.614   0.607 -0.5839  0.6644  1.4753
 1276SOL     OW 5277   0.299   5.845   6.870 -0.3835  0.1466 -0.1507
 1276SOL    HW1 5278   0.340   5.909   6.811 -1.0841  0.5173 -0.2405
 1276SOL    HW2 5279   0.208   5.842   6.842 -0.5973 -0.0867  0.5650
 1277SOL     OW 5280   1.198   6.627   1.908  0.2810 -0.0356 -0.4092
 1277SOL    HW1 5281   1.153   6.700   1.949 -0.0858 -0.1685 -0.5726
 1277SOL    HW2 5282   1.241   6.665   1.832  0.6479  0.1364 -0.1212
 1278SOL     OW 5283   6.493   1.856   6.576 -0.1888 -0.2260 -0.3635
 1278SOL    HW1 5284   6.458   1.923   6.516  0.2479 -0.2682 -0.6684
 1278SOL    HW2 5285   6.587   1.871   6.576 -0.2484  0.2413  0.8810
 1279SOL     OW 5286   4.470   3.883   6.948 -0.5193 -0.2514  0.0155
 1279SOL    HW1 5287   4.431   3.796   6.954  0.6290 -0.8922 -1.1850
 1279SOL    HW2 5288   4.397   3.939   6.920 -1.0964 -0.9659  0.0361
 1280SOL     OW 5289   3.364   6.192   2.422  0.3917  0.2964  0.9627
 1280SOL    HW1 5290   3.303   6.167   2.353  0.4140  0.5559  0.8489
 1280SOL    HW2 5291   3.308   6.213   2.497  0.3173  0.9106  0.7412
 1281SOL     OW 5292   5.786   6.774   1.008  0.1902  0.8325  0.5640
 1281SOL    HW1 5293   5.845   6.780   1.083  0.3975 -0.2529  0.5056
 1281SOL    HW2 5294   5.842   6.789   0.932  0.2726  0.4343  0.5446
 1282SOL     OW 5295   6.257   4.544   5.070 -0.1564  0.2333  0.0311
 1282SOL    HW1 5296   6.168   4.535   5.036  0.0981  3.3560 -1.8583
 1282SOL    HW2 5297   6.307   4.478   5.021 -1.1257 -0.5274  0.0092
 1283SOL     OW 5298   0.955   1.698   3.213  0.1322  0.4582 -0.1823
 1283SOL    HW1 5299   0.945   1.603   3.221  0.8985  0.3661 -0.2797
 1283SOL    HW2 5300   0.888   1.724   3.150  0.9601 -0.2362 -1.3660
 1284SOL     OW 5301   3.231   1.468   5.943  0.6839 -0.4470  0.3207
 1284SOL    HW1 5302   3.145   1.496   5.975  0.3589 -1.8309  0.7515
 1284SOL    HW2 5303   3.294   1.516   5.997  0.1701 -0.1760  0.6934
 1285SOL     OW 5304   0.682   1.767   1.538 -0.0687  0.5331  0.6176
 1285SOL    HW1 5305   0.672   1.857   1.569  0.7898  0.5053  1.0225
 1285SOL    HW2 5306   0.637   1.714   1.604 -1.0920  0.6942  0.0668
 1286SOL     OW 5307   4.974   0.435   6.997 -0.5543 -0.7438  0.8527
 1286SOL    HW1 5308   4.894   0.486   7.009 -2.0539 -1.6977 -3.2892
 1286SOL    HW2 5309   5.044   0.493   7.029 -2.6539  1.1072  2.4093
 1287SOL     OW 5310   0.840   4.996   1.731 -0.3694  0.9317 -0.3327
 1287SOL    HW1 5311   0.810   4.906   1.740  2.9402 -0.2802 -0.0995
 1287SOL    HW2 5312   0.809   5.040   1.810 -1.0961 -0.3009  0.0904
 1288SOL     OW 5313   0.777   1.685   2.616 -0.3023 -0.3288  0.3430
 1288SOL    HW1 5314   0.702   1.662   2.561 -0.4612 -1.2485  0.9312
 1288SOL    HW2 5315   0.790   1.779   2.600 -1.0374 -0.3456 -0.4157
 1289SOL     OW 5316   4.169   6.057   5.575 -0.2930 -0.0197 -0.0048
 1289SOL    HW1 5317   4.174   6.096   5.662  0.8230 -0.8554  0.3432
 1289SOL    HW2 5318   4.251   6.082   5.533  0.2933 -1.6094  0.0995
 1290SOL     OW 5319   4.658   2.634   1.689 -0.1567  0.2688 -0.1695
 1290SOL    HW1 5320   4.723   2.629   1.619  1.5441  0.4518  1.3170
 1290SOL    HW2 5321   4.672   2.555   1.740 -1.0321  0.3771  0.2568
 1291SOL     OW 5322   2.903   1.732   6.385 -0.0037 -0.2136  0.1665
 1291SOL    HW1 5323   2.958   1.677   6.329 -1.5007 -0.0982 -1.5067
 1291SOL    HW2 5324   2.856   1.671   6.441  1.0816 -0.3712  0.9285
 1292SOL     OW 5325   3.233   3.770   4.119  0.5257  0.6079  0.0036
 1292SOL    HW1 5326   3.177   3.715   4.175  0.8544  1.1146  0.8587
 1292SOL    HW2 5327   3.321   3.737   4.135  0.4556 -0.6567 -1.8833
 1293SOL     OW 5328   2.200   6.616   4.196  0.1326 -0.4401 -0.4895
 1293SOL    HW1 5329   2.123   6.669   4.220  0.2636 -0.6177  0.3491
 1293SOL    HW2 5330   2.163   6.539   4.153 -0.0931  0.0432 -1.1615
 1294SOL     OW 5331   2.847   4.245   1.241 -0.0518  0.3067  0.6000
 1294SOL    HW1 5332   2.863   4.340   1.242 -0.0088  0.3057  2.0158
 1294SOL    HW2 5333   2.768   4.235   1.188 -1.4017  1.4043  2.2750
 1295SOL     OW 5334   0.726   3.816   3.631 -0.4086 -0.0309 -0.1278
 1295SOL    HW1 5335   0.745   3.746   3.693 -1.4427  1.0914  1.5354
 1295SOL    HW2 5336   0.631   3.817   3.624 -0.3545  0.4960 -1.0111
 1296SOL     OW 5337   0.077   4.911   1.585  0.0391  0.4596  0.3542
 1296SOL    HW1 5338   0.135   4.918   1.509  0.3318 -1.1444  0.3913
 1296SOL    HW2 5339   0.009   4.849   1.559  0.1048 -0.0704  1.3475
 1297SOL     OW 5340   1.647   0.147   6.010 -0.3865  0.4922 -0.1185
 1297SOL    HW1 5341   1.639   0.118   5.919  0.3993  1.9758 -0.6933
 1297SOL    HW2 5342   1.573   0.207   6.022 -0.1355  0.7740  0.0275
 1298SOL     OW 5343   2.703   6.556   6.937  0.1067 -0.3667  0.3789
 1298SOL    HW1 5344   2.777   6.589   6.886  1.3612 -1.9275  1.1106
 1298SOL    HW2 5345   2.660   6.494   6.879  0.6257 -1.0061  0.6684
 1299SOL     OW 5346   0.135   4.802   4.634 -0.1786  0.6771 -0.4647
 1299SOL    HW1 5347   0.202   4.870   4.640  1.2307 -0.4871 -2.0844
 1299SOL    HW2 5348   0.135   4.777   4.542 -1.2919 -0.9008 -0.0669
 1300SOL     OW 5349   2.894   6.747   4.196  0.2617 -0.1350  0.2108
 1300SOL    HW1 5350   2.799   6.756   4.190  0.2040  0.1945  1.3303
 1300SOL    HW2 5351   2.915   6.773   4.286  1.1165 -2.6581  0.8299
 1301SOL     OW 5352   1.333   3.917   6.110  0.5099 -0.0184  0.5919
 1301SOL    HW1 5353   1.381   3.843   6.073  3.1994  2.3405 -0.9971
 1301SOL    HW2 5354   1.274   3.946   6.040  1.3641  0.8888  0.2284
 1302SOL     OW 5355   6.388   5.934   3.782  0.3173  0.0939 -0.3169
 1302SOL    HW1 5356   6.430   6.020   3.777  1.1359 -0.3428 -1.1260
 1302SOL    HW2 5357   6.409   5.902   3.870 -1.2785  1.3377  0.5821
 1303SOL     OW 5358   2.762   6.726   1.672  0.2324 -0.2586 -0.1255
 1303SOL    HW1 5359   2.736   6.758   1.585 -2.2911 -2.0149 -0.1167
 1303SOL    HW2 5360   2.755   6.803   1.728  1.3757  0.7841 -1.3316
 1304SOL     OW 5361   6.441   5.311   2.877 -0.3588 -0.2234  0.2448
 1304SOL    HW1 5362   6.515   5.281   2.824 -1.3321 -1.7828 -0.2983
 1304SOL    HW2 5363   6.366   5.261   2.845 -1.5138  0.7387  1.3115
 1305SOL     OW 5364   1.627   5.720   7.119  0.3220  0.3482 -0.4348
 1305SOL    HW1 5365   1.660   5.693   7.034 -1.0173 -3.5478  0.0897
 1305SOL    HW2 5366   1.700   5.705   7.179  0.2709 -0.0191 -0.4621
 1306SOL     OW 5367   4.044   5.649   4.467 -0.4341 -0.3904  0.0832
 1306SOL    HW1 5368   3.981   5.628   4.398  0.3040 -0.6067 -0.5248
 1306SOL    HW2 5369   4.130   5.637   4.427  0.0279  1.2636  0.4826
 1307SOL     OW 5370   1.050   4.089   0.522 -0.4435 -0.2603  0.3705
 1307SOL    HW1 5371   1.101   4.124   0.595 -0.6787  1.6545 -0.3467
 1307SOL    HW2 5372   0.964   4.070   0.559 -0.7268  1.1944  0.5171
 1308SOL     OW 5373   0.318   4.975   6.868  0.6852 -0.0008  0.2406
 1308SOL    HW1 5374   0.258   4.911   6.830 -0.0407  0.7100  0.1616
 1308SOL    HW2 5375   0.377   4.998   6.797  0.6267 -0.1947  0.1281
 1309SOL     OW 5376   0.653   4.979   4.561  0.6255  0.2264  0.4294
 1309SOL    HW1 5377   0.616   5.048   4.507  1.2826  2.2141  2.3476
 1309SOL    HW2 5378   0.578   4.927   4.589 -0.0672  1.0077  0.0577
 1310SOL     OW 5379   6.534   2.172   5.673  0.1634 -1.0049  0.3940
 1310SOL    HW1 5380   6.601   2.218   5.621 -1.3201  1.3224  0.4046
 1310SOL    HW2 5381   6.515   2.093   5.622 -0.8955  0.9343 -2.4691
 1311SOL     OW 5382   6.122   4.997   6.403 -0.1429  0.2562 -0.0946
 1311SOL    HW1 5383   6.172   4.977   6.482  0.9293  2.1995 -0.2069
 1311SOL    HW2 5384   6.036   5.026   6.436 -0.4398 -0.9142  0.2149
 1312SOL     OW 5385   4.175   6.727   5.010 -0.0626  0.0552 -0.3185
 1312SOL    HW1 5386   4.211   6.815   5.021 -0.3668  0.0352  0.9711
 1312SOL    HW2 5387   4.239   6.682   4.956  2.3994 -0.2331  2.5741
 1313SOL     OW 5388   6.024   5.117   0.152 -0.3664 -0.1761 -0.0146
 1313SOL    HW1 5389   5.931   5.133   0.134 -0.1808 -1.0740 -2.0867
 1313SOL    HW2 5390   6.059   5.204   0.171 -1.0937  0.6861 -2.1875
 1314SOL     OW 5391   0.145   6.041   0.244 -0.6531 -0.4613  0.1525
 1314SOL    HW1 5392   0.080   6.074   0.306  1.2821  2.0210  1.0352
 1314SOL    HW2 5393   0.101   6.044   0.159 -1.9317  0.4497  0.8135
 1315SOL     OW 5394   2.537   1.164   0.692 -0.1537 -0.3250  0.2061
 1315SOL    HW1 5395   2.472   1.107   0.651  0.0596  0.4408 -1.2426
 1315SOL    HW2 5396   2.546   1.129   0.781 -1.7516 -1.0896  0.1032
 1316SOL     OW 5397   2.022   4.625   4.136  0.3242  0.1579  0.7918
 1316SOL    HW1 5398   2.096   4.672   4.098  0.9025 -0.5699  0.9923
 1316SOL    HW2 5399   1.945   4.669   4.100  0.8499  0.4992  0.0530
 1317SOL     OW 5400   5.758   6.499   6.206  0.0705  0.4789  0.0825
 1317SOL    HW1 5401   5.711   6.513   6.288  0.1421  0.3317  0.1501
 1317SOL    HW2 5402   5.690   6.502   6.138  0.1711  1.7842  0.0238
 1318SOL     OW 5403   6.061   4.988   5.927 -0.0756 -0.3981  0.3448
 1318SOL    HW1 5404   6.009   4.977   6.006 -1.2821 -0.1501 -0.3908
 1318SOL    HW2 5405   6.067   4.900   5.889  0.0333 -0.4203  0.4110
 1319SOL     OW 5406   5.391   3.270   0.055 -0.2092 -0.1838  0.1685
 1319SOL    HW1 5407   5.333   3.228  -0.009  1.9119 -2.5919 -0.3146
 1319SOL    HW2 5408   5.440   3.334   0.003  0.2588 -0.8778 -0.2585
 1320SOL     OW 5409   1.880   0.728   5.903  0.3198 -0.4096 -0.6448
 1320SOL    HW1 5410   1.894   0.638   5.873  1.3398 -0.3711 -0.3086
 1320SOL    HW2 5411   1.967   0.763   5.917 -0.0378  0.9308 -1.5678
 1321SOL     OW 5412   0.457   2.220   7.099  0.6678 -0.1644 -0.3602
 1321SOL    HW1 5413   0.404   2.211   7.020 -1.5735 -0.3383  1.0574
 1321SOL    HW2 5414   0.517   2.146   7.097 -0.3137 -0.9612 -1.2358
 1322SOL     OW 5415   2.514   5.099   1.131  0.0830 -0.3964  0.6646
 1322SOL    HW1 5416   2.448   5.039   1.096  0.2887 -1.5871  2.2233
 1322SOL    HW2 5417   2.518   5.079   1.224  1.4656  0.8186  0.9030
 1323SOL     OW 5418   6.162   5.802   0.519 -0.1391 -0.6282 -0.1244
 1323SOL    HW1 5419   6.129   5.888   0.541 -0.3531 -1.4368  3.2005
 1323SOL    HW2 5420   6.206   5.814   0.435 -0.6552  2.5419 -0.0544
 1324SOL     OW 5421   4.675   0.218   3.144  0.3732  0.3280  0.0830
 1324SOL    HW1 5422   4.648   0.192   3.056 -1.2062  0.1184  0.5945
 1324SOL    HW2 5423   4.713   0.305   3.133 -0.3988  0.5724 -0.7327
 1325SOL     OW 5424   1.773   3.517   5.537 -0.1125 -0.0362 -0.3903
 1325SOL    HW1 5425   1.787   3.440   5.592 -2.1805 -0.5996 -0.5820
 1325SOL    HW2 5426   1.840   3.579   5.567  0.2879 -1.1362  1.1772
 1326SOL     OW 5427   4.524   4.812   5.659  0.4696 -0.2197  0.4786
 1326SOL    HW1 5428   4.456   4.749   5.684  1.0828 -0.7228  0.9443
 1326SOL    HW2 5429   4.547   4.788   5.569  1.4587 -1.3969  1.0125
 1327SOL     OW 5430   4.913   6.098   6.355 -0.2998  0.0628 -0.0049
 1327SOL    HW1 5431   4.858   6.170   6.324 -1.0859 -0.8009 -0.6629
 1327SOL    HW2 5432   5.001   6.121   6.327 -0.4865  0.9410  0.1068
 1328SOL     OW 5433   5.658   6.355   4.834  0.6432  0.3384  0.7242
 1328SOL    HW1 5434   5.638   6.425   4.896  1.2632  1.1441  0.0379
 1328SOL    HW2 5435   5.753   6.342   4.842  0.9526  1.3408 -0.9279
 1329SOL     OW 5436   5.663   2.999   6.585  0.0879  0.2259  0.6875
 1329SOL    HW1 5437   5.670   3.074   6.527 -0.8172 -0.8027 -0.8167
 1329SOL    HW2 5438   5.619   3.033   6.663  0.3064  1.3898  0.3242
 1330SOL     OW 5439   7.077   0.817   7.020  0.1342  0.3067  0.2395
 1330SOL    HW1 5440   7.034   0.901   7.011  0.1154  0.4950  1.7338
 1330SOL    HW2 5441   7.150   0.820   6.958  0.4675  1.6568  0.6738
 1331SOL     OW 5442   5.010   2.756   1.611  0.2028 -0.2243 -0.1244
 1331SOL    HW1 5443   5.027   2.683   1.552  1.0475  0.4040 -0.6737
 1331SOL    HW2 5444   4.941   2.806   1.568  1.0406  0.4097 -0.7585
 1332SOL     OW 5445   0.777   3.316   5.197 -0.1460 -0.5424 -0.4005
 1332SOL    HW1 5446   0.867   3.284   5.206 -0.2978 -1.0507 -0.6129
 1332SOL    HW2 5447   0.750   3.285   5.110 -0.7144 -0.8841 -0.1056
 1333SOL     OW 5448   3.504   0.524   5.854 -0.5897  0.0858  0.3813
 1333SOL    HW1 5449   3.463   0.446   5.816 -0.8506 -0.1326  1.0803
 1333SOL    HW2 5450   3.535   0.575   5.779 -2.4943  0.4562 -0.2000
 1334SOL     OW 5451   7.043   6.935   5.555  0.5373 -0.0708  0.0802
 1334SOL    HW1 5452   7.124   6.939   5.504  0.7462  0.1738  0.4286
 1334SOL    HW2 5453   7.071   6.922   5.645  0.1982  0.2260  0.2346
 1335SOL     OW 5454   0.152   6.436   0.987 -0.6023  0.4381 -0.5675
 1335SOL    HW1 5455   0.213   6.397   0.926 -0.4151  0.5621 -0.4618
 1335SOL    HW2 5456   0.197   6.513   1.021 -0.2407 -0.2400  0.5741
 1336SOL     OW 5457   6.544   4.032   5.439  0.1429  0.0444  0.4640
 1336SOL    HW1 5458   6.604   3.977   5.388  1.7154  0.6218  1.6128
 1336SOL    HW2 5459   6.483   3.970   5.479  1.5403 -0.8583  1.2893
 1337SOL     OW 5460   6.290   1.135   2.975  0.1760  0.0684 -0.7813
 1337SOL    HW1 5461   6.214   1.192   2.968 -0.0178 -0.1998 -0.8520
 1337SOL    HW2 5462   6.313   1.114   2.885 -1.4994 -2.2851 -0.7493
 1338SOL     OW 5463   6.564   6.322   0.334  0.0185 -0.0845 -0.1345
 1338SOL    HW1 5464   6.556   6.323   0.239 -0.8675 -1.2880 -0.0912
 1338SOL    HW2 5465   6.475   6.311   0.366  0.4299 -0.9790  0.7854
 1339SOL     OW 5466   4.804   6.493   3.716 -0.3490 -0.4537  0.3856
 1339SOL    HW1 5467   4.806   6.561   3.648  1.9692 -1.4892 -0.6773
 1339SOL    HW2 5468   4.713   6.464   3.717 -0.6384  0.1960 -1.6933
 1340SOL     OW 5469   5.038   6.129   0.856 -0.3482  0.4240  0.0751
 1340SOL    HW1 5470   5.026   6.077   0.776 -2.3961  1.5434 -0.3933
 1340SOL    HW2 5471   4.951   6.136   0.894 -0.1225  3.2536  0.2633
 1341SOL     OW 5472   4.712   5.621   0.701  0.1235  0.1838 -0.2627
 1341SOL    HW1 5473   4.705   5.561   0.775 -1.0708  0.1729 -0.3659
 1341SOL    HW2 5474   4.783   5.680   0.724 -0.8301  0.7649  1.3309
 1342SOL     OW 5475   2.835   4.930   4.851  0.1436  0.2239  0.0739
 1342SOL    HW1 5476   2.918   4.918   4.896 -0.9527  0.0807  2.1954
 1342SOL    HW2 5477   2.846   4.886   4.766  1.4108 -1.9563  1.2953
 1343SOL     OW 5478   6.396   6.408   0.557  0.0261  0.2106  0.5399
 1343SOL    HW1 5479   6.359   6.452   0.633 -1.3604 -0.0111  0.0385
 1343SOL    HW2 5480   6.478   6.453   0.540 -1.2325  2.5307  0.1444
 1344SOL     OW 5481   3.804   2.756   4.802  0.3121  0.3786 -0.3549
 1344SOL    HW1 5482   3.833   2.819   4.867  0.7735  1.0518 -1.2010
 1344SOL    HW2 5483   3.801   2.672   4.849  0.3099  0.9118  0.6047
 1345SOL     OW 5484   2.252   6.209   3.436 -0.1401 -0.0369  0.3201
 1345SOL    HW1 5485   2.235   6.259   3.516  0.6959 -0.1875  0.6039
 1345SOL    HW2 5486   2.255   6.118   3.465  1.5401  0.0127  0.3711
 1346SOL     OW 5487   3.281   2.243   1.054 -0.5660  0.2920  0.6015
 1346SOL    HW1 5488   3.205   2.301   1.055  1.1935  2.8389 -1.1362
 1346SOL    HW2 5489   3.315   2.248   0.964  1.7837 -0.5164  1.3557
 1347SOL     OW 5490   3.708   3.299   2.159 -0.5405 -0.4091  0.5422
 1347SOL    HW1 5491   3.639   3.280   2.096 -1.1429 -1.5819  1.5248
 1347SOL    HW2 5492   3.703   3.394   2.172 -0.5717 -0.1821 -0.9437
 1348SOL     OW 5493   2.791   2.143   4.914 -0.2879 -0.0148  0.1734
 1348SOL    HW1 5494   2.712   2.090   4.918 -0.8366  0.7736 -0.0484
 1348SOL    HW2 5495   2.760   2.231   4.892  0.6589  0.2789 -0.0201
 1349SOL     OW 5496   2.644   2.543   1.319 -0.4459 -0.3660 -0.1873
 1349SOL    HW1 5497   2.627   2.450   1.336  0.6039 -0.4489  0.5325
 1349SOL    HW2 5498   2.723   2.544   1.265  0.8309  0.1378  1.6014
 1350SOL     OW 5499   4.954   4.709   5.867 -0.1606  0.0160  0.6409
 1350SOL    HW1 5500   5.030   4.656   5.891 -0.3608 -1.3451 -1.3825
 1350SOL    HW2 5501   4.955   4.783   5.927  1.4302 -1.1519  2.1510
 1351SOL     OW 5502   2.244   5.480   6.479 -0.0003  0.0103 -0.0258
 1351SOL    HW1 5503   2.158   5.520   6.493  0.0067  0.4640 -1.2201
 1351SOL    HW2 5504   2.235   5.393   6.518 -0.9376  0.1207  0.0460
 1352SOL     OW 5505   0.002   6.480   4.024 -0.1801  0.1944 -0.2393
 1352SOL    HW1 5506   0.000   6.570   4.058 -0.0643  0.4843 -0.9875
 1352SOL    HW2 5507  -0.030   6.488   3.934  0.5650 -0.4045 -0.5621
 1353SOL     OW 5508   5.848   1.678   0.347 -0.1524  0.4274 -0.1480
 1353SOL    HW1 5509   5.837   1.587   0.375 -0.8583  0.2518 -0.9532
 1353SOL    HW2 5510   5.879   1.724   0.425 -0.7463 -0.3098  0.5307
 1354SOL     OW 5511   6.228   5.462   4.545 -0.1626  0.0822  0.5223
 1354SOL    HW1 5512   6.238   5.557   4.539  1.9556 -0.1184 -0.0263
 1354SOL    HW2 5513   6.258   5.441   4.634 -3.1062  0.1109  1.6315
 1355SOL     OW 5514   0.826   0.032   0.939 -0.9405  0.2164 -0.5927
 1355SOL    HW1 5515   0.789   0.114   0.972 -0.3630 -0.0253  0.7145
 1355SOL    HW2 5516   0.886   0.059   0.870 -1.0007  0.8742 -0.3948
 1356SOL     OW 5517   5.459   6.401   0.854  0.1269  0.0130  0.4693
 1356SOL    HW1 5518   5.476   6.368   0.766  1.4718  1.0191  0.3273
 1356SOL    HW2 5519   5.517   6.476   0.864 -0.8760  0.6656  1.7816
 1357SOL     OW 5520   6.994   4.367   4.469 -0.2806 -0.4251 -0.2469
 1357SOL    HW1 5521   7.088   4.382   4.469 -0.0708 -1.6395 -1.1287
 1357SOL    HW2 5522   6.972   4.353   4.561  0.0896  1.5165  0.1823
 1358SOL     OW 5523   0.797   4.149   6.726  0.3316 -0.5351 -0.3682
 1358SOL    HW1 5524   0.746   4.070   6.708 -0.9598  0.3275 -0.5439
 1358SOL    HW2 5525   0.865   4.149   6.658  0.5978 -1.6768 -0.1361
 1359SOL     OW 5526   1.601   6.755   1.311 -0.0354 -0.3576 -0.3591
 1359SOL    HW1 5527   1.574   6.701   1.386  0.3491 -2.8745 -1.9323
 1359SOL    HW2 5528   1.692   6.778   1.330 -0.4693  0.5535  0.7429
 1360SOL     OW 5529   1.193   1.134   3.464 -0.4054  0.4948 -0.3213
 1360SOL    HW1 5530   1.169   1.169   3.378 -0.6679  1.0427 -0.0296
 1360SOL    HW2 5531   1.175   1.040   3.458 -1.4915  0.7055 -0.5095
 1361SOL     OW 5532   6.880   5.653   1.290  0.4688 -0.0380  0.0508
 1361SOL    HW1 5533   6.800   5.605   1.309  0.3048  0.1316 -0.1996
 1361SOL    HW2 5534   6.856   5.713   1.219  0.4609  1.0087  0.9251
 1362SOL     OW 5535   4.677   4.651   1.446  0.1598  0.2545 -0.7542
 1362SOL    HW1 5536   4.751   4.618   1.498 -0.2576 -0.6234 -0.6914
 1362SOL    HW2 5537   4.647   4.729   1.492 -0.5361 -0.7949  0.6409
 1363SOL     OW 5538   0.039   5.221   2.831  0.1957 -0.4463 -0.6570
 1363SOL    HW1 5539   0.055   5.302   2.880  0.2068 -0.3881 -0.7554
 1363SOL    HW2 5540   0.034   5.249   2.740  1.1964 -0.6826 -0.7964
 1364SOL     OW 5541   6.719   1.625   6.636 -0.0637  0.0377 -0.0835
 1364SOL    HW1 5542   6.785   1.652   6.700 -0.7451 -1.1897  1.1979
 1364SOL    HW2 5543   6.640   1.672   6.662 -0.2164 -0.0722 -0.3425
 1365SOL     OW 5544   4.003   6.298   2.581  0.8509  0.3235 -0.3918
 1365SOL    HW1 5545   3.907   6.292   2.584  0.8942 -0.2442 -0.0156
 1365SOL    HW2 5546   4.033   6.231   2.643  1.5216 -1.3836 -2.4256
 1366SOL     OW 5547   0.463   0.480   7.017 -0.0152 -0.3821  0.3098
 1366SOL    HW1 5548   0.454   0.394   6.976 -2.5962 -0.6435  1.2390
 1366SOL    HW2 5549   0.380   0.494   7.062  0.8619  2.0125  1.3619
 1367SOL     OW 5550   0.387   1.280   4.824 -0.3864 -0.0989 -0.5706
 1367SOL    HW1 5551   0.390   1.285   4.920 -0.8689  1.1577 -0.6061
 1367SOL    HW2 5552   0.458   1.220   4.801  0.1687  0.1096  0.5396
 1368SOL     OW 5553   1.128   1.139   2.440 -0.0101 -0.2718  0.5541
 1368SOL    HW1 5554   1.120   1.209   2.374  1.6050 -1.3842 -0.9226
 1368SOL    HW2 5555   1.154   1.185   2.520  0.7699  0.8919 -0.3173
 1369SOL     OW 5556   0.666   6.795   3.540 -0.3295 -0.2671  0.2578
 1369SOL    HW1 5557   0.752   6.788   3.498 -0.2880  1.9675 -0.2017
 1369SOL    HW2 5558   0.680   6.856   3.612 -1.4496 -0.1173  0.3655
 1370SOL     OW 5559   3.212   4.212   0.583  0.3465  0.1164  0.0058
 1370SOL    HW1 5560   3.241   4.231   0.672 -2.3936 -1.3693  1.3225
 1370SOL    HW2 5561   3.257   4.131   0.559 -1.7010 -1.5938  1.6127
 1371SOL     OW 5562   0.497   2.615   1.721  0.6849 -0.4989 -0.2350
 1371SOL    HW1 5563   0.560   2.668   1.671 -0.6508  0.9984 -0.4173
 1371SOL    HW2 5564   0.441   2.576   1.654  0.6116 -0.7646 -0.0181
 1372SOL     OW 5565   0.194   5.428   0.927  0.3274  0.0029  0.1645
 1372SOL    HW1 5566   0.128   5.361   0.947 -0.6086  1.1897  1.2141
 1372SOL    HW2 5567   0.200   5.427   0.832  1.0843 -2.2368  0.1651
 1373SOL     OW 5568   3.978   6.999   6.266 -0.1091  0.2218  0.9349
 1373SOL    HW1 5569   4.038   6.930   6.294  1.8065  1.2008 -0.5128
 1373SOL    HW2 5570   3.916   7.007   6.338 -0.0795 -2.5796  1.3970
 1374SOL     OW 5571   6.885   1.297   5.514  0.3998  0.0279 -0.1924
 1374SOL    HW1 5572   6.790   1.306   5.507  0.6349  2.2631 -1.1830
 1374SOL    HW2 5573   6.897   1.213   5.559 -2.0559  0.4088  1.3966
 1375SOL     OW 5574   4.319   6.501   1.047  0.0179 -0.1897 -0.4649
 1375SOL    HW1 5575   4.233   6.458   1.043 -0.0278 -0.1019 -0.4328
 1375SOL    HW2 5576   4.381   6.429   1.059  0.0681 -0.3807 -1.6776
 1376SOL     OW 5577   6.904   2.007   1.990 -0.5090 -0.1376  0.3845
 1376SOL    HW1 5578   6.826   2.022   2.043 -0.1654 -0.7700  1.0791
 1376SOL    HW2 5579   6.976   2.004   2.052  0.2931  1.8214 -0.3668
 1377SOL     OW 5580   4.557   0.984   4.933  0.1060 -0.6292  0.7590
 1377SOL    HW1 5581   4.528   1.044   5.002  0.0581 -2.1234  2.1167
 1377SOL    HW2 5582   4.475   0.950   4.895  0.0613 -1.6448  1.6906
 1378SOL     OW 5583   7.008   6.951   4.405 -0.1491 -0.5280 -0.1495
 1378SOL    HW1 5584   7.056   6.957   4.322  0.4197 -1.6134  0.0817
 1378SOL    HW2 5585   6.919   6.929   4.379  0.5167 -3.3255 -0.4546
 1379SOL     OW 5586   2.941   6.800   5.293 -0.0211  0.2071 -0.0952
 1379SOL    HW1 5587   2.969   6.817   5.203 -0.5694  0.6743 -0.1842
 1379SOL    HW2 5588   3.019   6.816   5.346  0.5320 -0.8986 -0.5590
 1380SOL     OW 5589   1.538   4.288   1.163  0.0152 -0.1145 -0.1004
 1380SOL    HW1 5590   1.545   4.382   1.179 -1.2538  0.0155 -0.2132
 1380SOL    HW2 5591   1.548   4.279   1.068  0.6909 -0.1526 -0.0255
 1381SOL     OW 5592   1.151   3.738   4.441 -0.0066 -0.0427  0.2694
 1381SOL    HW1 5593   1.200   3.704   4.366 -0.7179  0.5770 -0.4967
 1381SOL    HW2 5594   1.183   3.828   4.451  1.3274 -0.6374  1.8144
 1382SOL     OW 5595   0.804   4.972   3.103  0.2912  0.3951  0.4676
 1382SOL    HW1 5596   0.892   4.938   3.087  0.0178  0.2144 -0.7346
 1382SOL    HW2 5597   0.779   5.013   3.021 -1.2992 -0.7920  0.3035
 1383SOL     OW 5598   5.156   4.388   4.694 -0.0253 -0.1487  0.1962
 1383SOL    HW1 5599   5.111   4.460   4.652  0.9858  0.9265  0.8983
 1383SOL    HW2 5600   5.235   4.374   4.641  0.8341  0.6677  1.2196
 1384SOL     OW 5601   2.727   2.725   3.719  0.2735  0.5278  0.0940
 1384SOL    HW1 5602   2.719   2.814   3.754  1.2752  0.0727  1.5525
 1384SOL    HW2 5603   2.736   2.669   3.796 -2.5491 -1.1581 -0.6519
 1385SOL     OW 5604   6.017   6.394   0.761  0.5790  0.4666  0.6008
 1385SOL    HW1 5605   6.036   6.472   0.812 -1.2266  0.0938  1.9557
 1385SOL    HW2 5606   6.057   6.322   0.810  1.8459  0.4594 -0.4006
 1386SOL     OW 5607   4.304   2.286   5.618  0.1256  0.1559 -0.5823
 1386SOL    HW1 5608   4.210   2.291   5.636  0.4727 -0.8016  1.9108
 1386SOL    HW2 5609   4.332   2.206   5.662  2.0811  0.2990 -1.4834
 1387SOL     OW 5610   2.768   1.684   0.232 -0.0899  0.5029 -0.4622
 1387SOL    HW1 5611   2.765   1.645   0.320  0.6463 -1.1399 -1.1173
 1387SOL    HW2 5612   2.677   1.708   0.214 -0.3671  0.2047  0.4829
 1388SOL     OW 5613   0.300   4.992   6.271 -0.4514 -0.8590  0.0929
 1388SOL    HW1 5614   0.290   5.061   6.205 -0.7800  0.8086  1.7885
 1388SOL    HW2 5615   0.220   4.940   6.262 -0.9770 -0.0371 -0.1589
 1389SOL     OW 5616   6.377   3.281   1.095  0.3673  0.0943 -0.6258
 1389SOL    HW1 5617   6.438   3.349   1.067 -0.4344  1.5796  1.0190
 1389SOL    HW2 5618   6.314   3.273   1.023  0.9812  0.4530 -1.2093
 1390SOL     OW 5619   3.425   4.875   4.273 -0.4241 -0.5373  0.3353
 1390SOL    HW1 5620   3.474   4.911   4.198 -1.0305 -0.4338 -0.0152
 1390SOL    HW2 5621   3.362   4.943   4.296 -1.1845 -1.1298  0.0421
 1391SOL     OW 5622   6.290   5.592   2.701 -0.2943 -0.3822 -0.7028
 1391SOL    HW1 5623   6.250   5.657   2.643  1.6233  1.6160  0.0419
 1391SOL    HW2 5624   6.380   5.583   2.668  0.1188 -1.0006  0.5132
 1392SOL     OW 5625   2.364   4.205   1.270 -0.1105  0.3586 -0.1803
 1392SOL    HW1 5626   2.288   4.146   1.277  0.2096  0.0597  0.8444
 1392SOL    HW2 5627   2.433   4.150   1.232 -1.3586  1.5394 -4.9296
 1393SOL     OW 5628   3.523   6.979   4.735  0.2071  0.0803  0.4000
 1393SOL    HW1 5629   3.531   6.889   4.703 -1.8126  0.2789 -0.8291
 1393SOL    HW2 5630   3.467   6.972   4.812  0.2416  0.2667  0.4426
 1394SOL     OW 5631   0.273   2.452   3.113  0.3977  0.0559  0.0487
 1394SOL    HW1 5632   0.301   2.495   3.195  0.1312  2.3947 -1.0134
 1394SOL    HW2 5633   0.243   2.523   3.058  0.9113 -1.4150 -2.2656
 1395SOL     OW 5634   7.097   0.023   1.828 -0.2748 -0.2258  0.0256
 1395SOL    HW1 5635   7.086   0.010   1.734 -0.6659  1.3488 -0.1828
 1395SOL    HW2 5636   7.106  -0.065   1.864 -0.6871 -0.8884 -1.4154
 1396SOL     OW 5637   5.223   0.317   6.093 -0.0366 -0.1501 -0.3040
 1396SOL    HW1 5638   5.151   0.254   6.088  0.5437 -1.0251  1.3638
 1396SOL    HW2 5639   5.244   0.336   6.002 -1.3093 -1.1102 -0.8453
 1397SOL     OW 5640   5.015   5.902   5.840 -0.5677 -0.1284  0.1628
 1397SOL    HW1 5641   4.919   5.901   5.833 -0.5314  0.2424 -0.5736
 1397SOL    HW2 5642   5.041   5.811   5.825 -0.8186 -0.2672  0.5744
 1398SOL     OW 5643   6.498   4.514   6.337  0.3346 -0.0689 -0.0116
 1398SOL    HW1 5644   6.543   4.521   6.421  1.2754 -0.9647 -0.4042
 1398SOL    HW2 5645   6.413   4.477   6.358  0.3658  0.1996  0.6023
 1399SOL     OW 5646   6.599   4.477   2.967  0.3343 -0.0974  0.1334
 1399SOL    HW1 5647   6.561   4.557   3.004  2.1974  0.6263  0.5814
 1399SOL    HW2 5648   6.673   4.507   2.915  1.8107 -1.5892  1.2869
 1400SOL     OW 5649   1.197   5.152   6.131 -0.0751  0.5636 -0.2043
 1400SOL    HW1 5650   1.284   5.112   6.125 -0.6178 -0.5725 -0.6977
 1400SOL    HW2 5651   1.207   5.219   6.199  0.6699 -0.9502  1.2482
 1401SOL     OW 5652   6.193   1.392   2.403 -0.3417 -0.2304  0.2769
 1401SOL    HW1 5653   6.216   1.330   2.334  0.0545  0.1065  0.0985
 1401SOL    HW2 5654   6.258   1.376   2.472 -0.1006  0.1336  0.1368
 1402SOL     OW 5655   7.035   2.241   3.763 -0.0815 -0.0725 -0.2146
 1402SOL    HW1 5656   7.026   2.271   3.672 -0.2247  0.9519  0.1272
 1402SOL    HW2 5657   7.122   2.202   3.766 -0.3682 -0.8144 -0.9791
 1403SOL     OW 5658   1.407   4.076   6.966  0.6529 -0.3926  0.1319
 1403SOL    HW1 5659   1.407   4.041   6.877 -2.8765 -2.4414  0.7591
 1403SOL    HW2 5660   1.453   4.010   7.017  1.2697 -0.0005  0.0906
 1404SOL     OW 5661   3.924   0.922   5.429 -0.0738  0.1911  0.6339
 1404SOL    HW1 5662   4.016   0.900   5.418 -0.6032 -1.3261 -1.5910
 1404SOL    HW2 5663   3.892   0.864   5.498  0.0989 -1.1945 -0.4142
 1405SOL     OW 5664   4.211   2.023   2.371  0.0553 -0.0641 -0.4392
 1405SOL    HW1 5665   4.283   2.079   2.401 -0.1127 -0.3160  0.4728
 1405SOL    HW2 5666   4.251   1.962   2.309  0.1686  1.3031 -1.7636
 1406SOL     OW 5667   1.050   0.383   5.335 -0.0126 -0.2734  0.0797
 1406SOL    HW1 5668   0.979   0.327   5.367  0.1334 -0.0516  0.8029
 1406SOL    HW2 5669   1.007   0.460   5.298 -0.1714 -0.4313 -0.0653
 1407SOL     OW 5670   6.789   2.536   5.394 -0.1420 -0.3202 -0.0796
 1407SOL    HW1 5671   6.726   2.561   5.327 -1.4376  0.5114  1.3763
 1407SOL    HW2 5672   6.853   2.607   5.395 -0.3434 -0.1353 -0.1727
 1408SOL     OW 5673   1.816   0.347   0.792 -0.1222 -0.2155  0.1837
 1408SOL    HW1 5674   1.724   0.357   0.815  0.2887 -0.7305  2.3018
 1408SOL    HW2 5675   1.826   0.397   0.711 -2.0512  0.6414  0.4101
 1409SOL     OW 5676   2.751   3.950   4.537 -0.0787 -0.2772  0.3897
 1409SOL    HW1 5677   2.836   3.929   4.576  0.6770  1.3453 -0.2747
 1409SOL    HW2 5678   2.773   3.987   4.451 -1.4040  0.6732  0.4253
 1410SOL     OW 5679   1.517   6.791   2.012  0.3698  0.0387 -0.1960
 1410SOL    HW1 5680   1.428   6.824   1.997  0.1706 -0.9877 -1.5311
 1410SOL    HW2 5681   1.548   6.838   2.089 -1.8861 -0.6310  1.2178
 1411SOL     OW 5682   6.269   4.477   6.491 -0.6252 -0.6255  0.5465
 1411SOL    HW1 5683   6.208   4.527   6.438  1.3579  1.0253 -0.3080
 1411SOL    HW2 5684   6.287   4.534   6.566  2.5684  0.6787 -1.0252
 1412SOL     OW 5685   4.253   6.957   4.721 -0.2965  0.3067  0.2065
 1412SOL    HW1 5686   4.168   6.916   4.702  0.0579 -0.0137 -0.7200
 1412SOL    HW2 5687   4.256   7.034   4.666  0.1821  0.0979 -0.0653
 1413SOL     OW 5688   1.114   2.080   2.916 -0.0394 -0.6383 -0.0368
 1413SOL    HW1 5689   1.082   2.098   3.004  0.7641 -0.6254  0.2680
 1413SOL    HW2 5690   1.140   1.987   2.919 -0.6534 -0.8263 -0.4665
 1414SOL     OW 5691   1.165   1.806   2.842  0.7029  0.0556 -0.1142
 1414SOL    HW1 5692   1.100   1.736   2.845  0.4523  0.2924  0.0238
 1414SOL    HW2 5693   1.150   1.849   2.758  0.6993  0.0964 -0.0924
 1415SOL     OW 5694   4.603   6.669   6.002 -0.2423 -0.2277 -0.1238
 1415SOL    HW1 5695   4.594   6.721   5.922  1.4049  1.0155  0.4290
 1415SOL    HW2 5696   4.667   6.601   5.979  1.8761  1.3880  0.6156
 1416SOL     OW 5697   3.458   3.593   6.200  0.8543 -0.1331 -0.3429
 1416SOL    HW1 5698   3.491   3.585   6.290  1.1091 -1.9083 -0.5565
 1416SOL    HW2 5699   3.375   3.545   6.201  1.2710 -0.9033 -1.2276
 1417SOL     OW 5700   4.215   0.844   1.248  0.1443  0.2947  0.2333
 1417SOL    HW1 5701   4.122   0.852   1.267 -0.1619  1.8447 -1.6324
 1417SOL    HW2 5702   4.221   0.850   1.153  2.1529 -0.0128  0.2863
 1418SOL     OW 5703   6.280   2.743   2.912 -0.4491  0.2405 -0.1628
 1418SOL    HW1 5704   6.238   2.764   2.829 -1.1490  1.6777  0.5314
 1418SOL    HW2 5705   6.349   2.808   2.922 -1.2930  1.0037  1.0292
 1419SOL     OW 5706   3.931   1.239   1.675  0.4916  0.1494 -0.1492
 1419SOL    HW1 5707   3.859   1.272   1.621  0.5241  2.1881  0.9790
 1419SOL    HW2 5708   3.891   1.221   1.760  0.7334 -1.6562 -0.3859
 1420SOL     OW 5709   2.464   4.767   1.958  0.7045 -0.1777 -0.1904
 1420SOL    HW1 5710   2.524   4.838   1.938 -0.0089  0.4095 -0.2997
 1420SOL    HW2 5711   2.382   4.793   1.916  0.2201 -0.6881  0.4233
 1421SOL     OW 5712   6.767   1.763   6.047 -0.0290  0.0612  0.0124
 1421SOL    HW1 5713   6.704   1.701   6.082  0.0872 -0.4744 -0.6949
 1421SOL    HW2 5714   6.739   1.848   6.080 -1.9214  0.0235 -1.3618
 1422SOL     OW 5715   5.596   0.128   1.588 -0.0579  0.5774  0.0188
 1422SOL    HW1 5716   5.623   0.152   1.677 -0.7052 -0.6294  0.5624
 1422SOL    HW2 5717   5.517   0.076   1.600  1.3971 -2.0634 -1.0532
 1423SOL     OW 5718   2.412   4.613   0.815  0.0821 -0.0349 -0.1832
 1423SOL    HW1 5719   2.470   4.567   0.753  0.5975  0.8074 -0.3465
 1423SOL    HW2 5720   2.433   4.575   0.900  1.9621  1.2368 -0.0179
 1424SOL     OW 5721   2.608   1.763   5.379 -0.9292  0.3630 -0.3832
 1424SOL    HW1 5722   2.650   1.795   5.299 -2.2287  0.0591 -1.2167
 1424SOL    HW2 5723   2.614   1.668   5.373  1.0703  0.3280  1.0767
 1425SOL     OW 5724   3.723   3.236   3.712 -0.3913  0.1664  0.4122
 1425SOL    HW1 5725   3.681   3.156   3.680 -0.1104  0.2540 -0.1894
 1425SOL    HW2 5726   3.651   3.292   3.740 -0.5970 -0.2566  0.7517
 1426SOL     OW 5727   5.313   5.038   1.693  0.4044 -0.2593  0.1261
 1426SOL    HW1 5728   5.402   5.056   1.663 -0.1013  0.3298 -1.0667
 1426SOL    HW2 5729   5.320   5.035   1.788  1.8497 -1.0323  0.0215
 1427SOL     OW 5730   5.493   0.969   4.695  0.2581  0.4455  0.6487
 1427SOL    HW1 5731   5.517   0.955   4.787  0.5508 -0.7543  0.4046
 1427SOL    HW2 5732   5.468   1.061   4.691 -2.3407 -0.0371  2.5199
 1428SOL     OW 5733   3.075   7.128   1.751  0.1187 -0.0028 -0.3412
 1428SOL    HW1 5734   3.081   7.085   1.666  1.3375 -0.1603 -0.1908
 1428SOL    HW2 5735   3.007   7.079   1.798 -1.6898  1.0245 -1.7235
 1429SOL     OW 5736   5.572   5.677   3.316  0.1730  0.1417  0.0954
 1429SOL    HW1 5737   5.659   5.702   3.284 -0.4700 -0.1059 -2.0397
 1429SOL    HW2 5738   5.582   5.588   3.348  0.5560 -0.1729 -0.8740
 1430SOL     OW 5739   0.596   4.122   5.982 -0.5790 -0.3570 -0.3358
 1430SOL    HW1 5740   0.527   4.056   5.989 -1.0147 -0.0096 -1.1749
 1430SOL    HW2 5741   0.556   4.202   6.013 -0.5447 -0.1608 -0.7891
 1431SOL     OW 5742   4.982   6.213   1.209  0.0191 -0.3204 -0.1664
 1431SOL    HW1 5743   5.043   6.278   1.244  0.3029 -0.4754 -0.3741
 1431SOL    HW2 5744   4.895   6.252   1.222  0.2583  0.8070 -1.7410
 1432SOL     OW 5745   1.299   1.862   3.357  0.6372  0.1533  0.3184
 1432SOL    HW1 5746   1.259   1.842   3.272  0.1814 -0.4578  0.6658
 1432SOL    HW2 5747   1.383   1.902   3.335  0.2020  0.6959 -0.4232
 1433SOL     OW 5748   1.902   3.469   5.273 -0.0388  0.1683 -0.1663
 1433SOL    HW1 5749   1.848   3.503   5.344 -0.7361 -0.6749 -0.2711
 1433SOL    HW2 5750   1.938   3.547   5.231  1.7426  0.6487  2.0993
 1434SOL     OW 5751   5.529   4.256   1.094 -0.0060 -0.0681 -0.1068
 1434SOL    HW1 5752   5.469   4.328   1.072 -1.7056 -1.6048 -0.7094
 1434SOL    HW2 5753   5.614   4.298   1.100 -1.1648  2.2997  1.2024
 1435SOL     OW 5754   2.728   4.229   4.726 -0.5253 -0.0051 -0.1402
 1435SOL    HW1 5755   2.731   4.318   4.692  0.2006  0.2900  0.6503
 1435SOL    HW2 5756   2.642   4.195   4.699  0.1873  0.0177 -2.6179
 1436SOL     OW 5757   6.141   5.109   4.687  0.9715 -0.2177  0.2688
 1436SOL    HW1 5758   6.079   5.179   4.668  1.5291  0.3189  0.3954
 1436SOL    HW2 5759   6.167   5.076   4.601 -0.3437 -1.2236  0.2284
 1437SOL     OW 5760   6.796   1.545   0.782 -0.1784  0.6436  0.0839
 1437SOL    HW1 5761   6.868   1.483   0.768  1.1796  2.4583 -1.7158
 1437SOL    HW2 5762   6.836   1.631   0.767 -2.6406  1.7558 -0.5929
 1438SOL     OW 5763   0.545   2.226   3.633 -0.1517  0.0099 -0.1892
 1438SOL    HW1 5764   0.524   2.134   3.617 -1.2603  0.0749  0.7556
 1438SOL    HW2 5765   0.558   2.232   3.728 -0.1965  0.8475 -0.2225
 1439SOL     OW 5766   5.018   4.951   6.553  0.0772  0.2734  0.2242
 1439SOL    HW1 5767   5.042   5.003   6.629  0.7779 -2.5089  2.0711
 1439SOL    HW2 5768   4.922   4.951   6.554  0.0775  0.6955  0.8084
 1440SOL     OW 5769   1.863   5.018   2.328 -0.2229 -0.2436 -0.7409
 1440SOL    HW1 5770   1.867   5.019   2.424 -1.5072 -1.3711 -0.6494
 1440SOL    HW2 5771   1.915   5.094   2.301  0.5823 -0.2040  0.8271
 1441SOL     OW 5772   2.449   3.186   3.677  0.1970  0.4940 -0.0567
 1441SOL    HW1 5773   2.373   3.220   3.631 -0.4578  0.6911  1.1167
 1441SOL    HW2 5774   2.413   3.123   3.740  1.1514 -0.5543 -0.5051
 1442SOL     OW 5775   3.383   3.631   1.285 -0.4445  0.0890  0.3581
 1442SOL    HW1 5776   3.420   3.596   1.204  0.8694  0.6435  0.6821
 1442SOL    HW2 5777   3.374   3.725   1.269 -1.2831  0.0260  0.4516
 1443SOL     OW 5778   0.072   5.677   4.835 -0.4588 -0.2364  0.6276
 1443SOL    HW1 5779   0.051   5.739   4.765 -0.8560  1.4250  2.1589
 1443SOL    HW2 5780   0.012   5.603   4.820  0.3478 -0.5268 -1.4950
 1444SOL     OW 5781   6.734   5.043   1.324  0.3875 -0.3736  0.0504
 1444SOL    HW1 5782   6.707   5.027   1.234  2.4579 -0.8170 -0.5430
 1444SOL    HW2 5783   6.767   5.133   1.323 -1.9955  0.6109  1.0484
 1445SOL     OW 5784   1.003   0.666   4.166  0.3065  0.3028  0.2903
 1445SOL    HW1 5785   0.934   0.730   4.149 -0.0289 -0.1961 -0.2557
 1445SOL    HW2 5786   1.023   0.677   4.259  0.5039  1.4324  0.1256
 1446SOL     OW 5787   4.243   0.877   5.492  0.0382  0.0258  0.2431
 1446SOL    HW1 5788   4.266   0.797   5.444 -0.7368  0.0731 -0.2145
 1446SOL    HW2 5789   4.274   0.860   5.581 -2.4006 -1.8893  0.8404
 1447SOL     OW 5790   2.074   6.809   2.677  0.4757 -0.1463 -0.8807
 1447SOL    HW1 5791   2.159   6.812   2.632  0.5490  1.8231 -0.6851
 1447SOL    HW2 5792   2.097   6.800   2.769  0.4864  0.3668 -0.8297
 1448SOL     OW 5793   0.245   4.441   5.017  0.2999 -0.8257  0.5271
 1448SOL    HW1 5794   0.282   4.360   5.052 -0.1972 -0.7978  1.1187
 1448SOL    HW2 5795   0.161   4.416   4.979  0.0431 -0.5524  0.9081
 1449SOL     OW 5796   6.277   4.846   2.487 -0.0824  0.4128  0.0989
 1449SOL    HW1 5797   6.286   4.940   2.506  3.4409  0.2379 -0.0325
 1449SOL    HW2 5798   6.347   4.805   2.537 -0.7063 -2.0111 -0.8933
 1450SOL     OW 5799   4.269   5.539   0.903 -0.4683 -0.3926  0.8191
 1450SOL    HW1 5800   4.304   5.605   0.963 -0.2142 -0.5694  0.8673
 1450SOL    HW2 5801   4.298   5.568   0.817 -0.5485 -0.3193  0.8168
 1451SOL     OW 5802   1.706   3.002   4.227  0.5817 -0.5915  0.3033
 1451SOL    HW1 5803   1.798   3.025   4.233  0.7510 -1.2962  0.4703
 1451SOL    HW2 5804   1.705   2.909   4.206 -0.0982 -0.9138  1.6715
 1452SOL     OW 5805   4.784   0.036   3.377  0.2577  0.1993 -0.3549
 1452SOL    HW1 5806   4.803  -0.052   3.345 -0.8056 -0.1160 -0.1435
 1452SOL    HW2 5807   4.697   0.056   3.342  0.0288  0.7324  0.4981
 1453SOL     OW 5808   0.081   0.739   1.631  0.0283 -0.0126 -0.0497
 1453SOL    HW1 5809   0.164   0.697   1.656 -0.2208 -1.0369 -0.8656
 1453SOL    HW2 5810   0.094   0.768   1.541 -0.3202  0.3098  0.0001
 1454SOL     OW 5811   4.327   6.042   6.647  0.3272 -0.3323  0.4064
 1454SOL    HW1 5812   4.422   6.041   6.631  0.2841 -1.2124  0.1542
 1454SOL    HW2 5813   4.303   6.135   6.640  1.1958 -0.0769  0.6539
 1455SOL     OW 5814   4.066   6.737   3.388  0.2320 -0.5791 -0.4027
 1455SOL    HW1 5815   4.020   6.690   3.457 -1.2868  0.6650 -0.5134
 1455SOL    HW2 5816   4.003   6.742   3.316 -0.8356  3.8970  0.5444
 1456SOL     OW 5817   2.283   2.383   6.363 -0.0022 -0.4256 -0.1042
 1456SOL    HW1 5818   2.209   2.376   6.303 -0.8816 -2.1304  1.1144
 1456SOL    HW2 5819   2.292   2.296   6.402  2.3761 -0.1561  0.1259
 1457SOL     OW 5820   7.088   3.326   0.683  0.0294 -0.1636  0.9904
 1457SOL    HW1 5821   7.050   3.244   0.714 -0.0882 -1.1234 -1.4806
 1457SOL    HW2 5822   7.180   3.322   0.709 -0.0002 -1.0244  0.9765
 1458SOL     OW 5823   6.366   2.528   6.345 -0.0305  0.1194 -0.0458
 1458SOL    HW1 5824   6.399   2.591   6.280  1.2225 -0.1779  0.2695
 1458SOL    HW2 5825   6.332   2.582   6.416 -1.5016  0.4520 -0.9556
 1459SOL     OW 5826   5.668   3.168   6.365  1.2549  0.6794  0.3306
 1459SOL    HW1 5827   5.716   3.171   6.282  1.6316 -0.4199  0.4932
 1459SOL    HW2 5828   5.602   3.237   6.357 -0.1502 -0.7891 -1.7953
 1460SOL     OW 5829   0.754   6.896   1.271  0.2638  0.0202  0.4573
 1460SOL    HW1 5830   0.838   6.881   1.228  0.6928  1.1691  0.8287
 1460SOL    HW2 5831   0.758   6.842   1.350  0.4764 -0.2653  0.2522
 1461SOL     OW 5832   6.329   1.328   2.630 -0.4433  0.3967 -0.3372
 1461SOL    HW1 5833   6.419   1.322   2.661 -0.2728  3.1739 -0.0748
 1461SOL    HW2 5834   6.275   1.308   2.706 -0.0334  1.3299  0.2025
 1462SOL     OW 5835   0.998   1.287   6.701 -0.1389  0.5372 -1.0928
 1462SOL    HW1 5836   0.977   1.342   6.776 -2.3179 -1.2755 -0.2596
 1462SOL    HW2 5837   1.085   1.316   6.673  0.0451  2.3424  1.1193
 1463SOL     OW 5838   4.148   2.979   6.765  0.4541 -0.6030  0.6965
 1463SOL    HW1 5839   4.059   3.013   6.760  0.9415  0.5581 -0.7129
 1463SOL    HW2 5840   4.202   3.056   6.783  1.0633 -1.5016  2.9617
 1464SOL     OW 5841   0.820   5.005   7.102 -0.3144  0.1537  0.8324
 1464SOL    HW1 5842   0.726   4.988   7.098 -0.1811 -0.3649 -1.0071
 1464SOL    HW2 5843   0.830   5.069   7.173 -1.9220 -0.5205  1.7222
 1465SOL     OW 5844   2.526   5.073   2.507 -0.4299  0.6173 -0.4616
 1465SOL    HW1 5845   2.538   5.143   2.443  0.2899  0.9209 -0.0171
 1465SOL    HW2 5846   2.596   5.011   2.488  0.0841  0.9386  0.3056
 1466SOL     OW 5847   3.120   1.267   6.708 -0.6016  0.0736  0.1587
 1466SOL    HW1 5848   3.132   1.173   6.723 -0.4980 -0.4308 -2.5594
 1466SOL    HW2 5849   3.027   1.283   6.727 -1.0655 -0.9983 -1.0691
 1467SOL     OW 5850   3.079   5.621   4.947  0.3347  0.5717 -0.1610
 1467SOL    HW1 5851   3.081   5.572   5.030  1.6526  0.7997 -0.0411
 1467SOL    HW2 5852   3.001   5.588   4.902  0.0513 -0.1452  0.8163
 1468SOL     OW 5853   1.121   1.159   6.255 -0.4202 -0.0107  0.4105
 1468SOL    HW1 5854   1.115   1.103   6.332 -0.1995 -0.6295 -0.0130
 1468SOL    HW2 5855   1.079   1.108   6.185  0.0498  0.2223 -0.0465
 1469SOL     OW 5856   4.278   0.846   0.971  0.0088 -1.0854 -0.2484
 1469SOL    HW1 5857   4.224   0.828   0.894 -0.8709  0.6092 -0.0838
 1469SOL    HW2 5858   4.367   0.857   0.937 -0.8367  3.4138 -1.7959
 1470SOL     OW 5859   2.529   7.117   5.421 -0.5309 -0.1680  0.1250
 1470SOL    HW1 5860   2.567   7.148   5.339 -1.8991  2.3070  0.3105
 1470SOL    HW2 5861   2.573   7.168   5.489 -0.3709 -1.2144  0.8383
 1471SOL     OW 5862   6.681   7.119   3.536 -0.2275 -0.2292  0.0427
 1471SOL    HW1 5863   6.643   7.201   3.570  1.1718 -0.1380  1.5241
 1471SOL    HW2 5864   6.606   7.060   3.528 -0.9111  0.3704  1.5527
 1472SOL     OW 5865   6.080   2.725   5.357  0.1076  0.1832  0.1938
 1472SOL    HW1 5866   5.995   2.722   5.313  0.0242 -0.1893  0.3737
 1472SOL    HW2 5867   6.104   2.633   5.369  1.5269  0.2338 -1.7431
 1473SOL     OW 5868   3.721   3.636   4.106  0.6500 -0.3346 -0.4439
 1473SOL    HW1 5869   3.720   3.580   4.029  0.3556  0.4024 -0.9901
 1473SOL    HW2 5870   3.789   3.701   4.088 -0.4307  0.7462 -0.7675
 1474SOL     OW 5871   5.917   0.193   2.658  0.0541 -0.1862 -0.3050
 1474SOL    HW1 5872   5.846   0.129   2.650  0.2731 -0.5329  0.4170
 1474SOL    HW2 5873   5.904   0.232   2.744  0.3197  0.2611 -0.4671
 1475SOL     OW 5874   4.065   5.897   6.125  0.7886  0.1868  0.1150
 1475SOL    HW1 5875   3.981   5.882   6.168 -0.1386  1.5394 -1.1077
 1475SOL    HW2 5876   4.042   5.930   6.038  2.5828  0.8288 -0.1672
 1476SOL     OW 5877   3.110   2.931   1.125 -0.0154  0.5560  0.4135
 1476SOL    HW1 5878   3.019   2.934   1.156 -0.8397  3.1580 -1.8492
 1476SOL    HW2 5879   3.103   2.905   1.033  1.4663  1.1093  0.1211
 1477SOL     OW 5880   4.840   5.848   6.468 -0.5136  0.5687 -0.0249
 1477SOL    HW1 5881   4.859   5.929   6.423 -0.2551  0.8826  0.6334
 1477SOL    HW2 5882   4.912   5.837   6.531  0.3784 -1.0377 -1.2355
 1478SOL     OW 5883   5.359   6.441   5.271  0.0018  0.2704 -0.0072
 1478SOL    HW1 5884   5.348   6.495   5.192 -2.4063  0.7985  0.6104
 1478SOL    HW2 5885   5.405   6.498   5.333  2.0686 -0.2059 -1.0152
 1479SOL     OW 5886   1.798   6.013   4.892 -0.0830 -0.0192  0.6745
 1479SOL    HW1 5887   1.867   6.028   4.828  0.1349  1.8296  1.2878
 1479SOL    HW2 5888   1.846   6.002   4.975 -0.4781  0.4921  0.9737
 1480SOL     OW 5889   1.678   6.189   2.695 -0.2016 -0.2105  0.2767
 1480SOL    HW1 5890   1.772   6.194   2.676 -0.3244  1.0317 -0.1002
 1480SOL    HW2 5891   1.666   6.104   2.738  1.0080 -0.6051 -0.1380
 1481SOL     OW 5892   5.752   3.925   1.410 -0.3074  0.1345 -0.5824
 1481SOL    HW1 5893   5.797   3.949   1.491  0.9076 -2.5459 -0.3744
 1481SOL    HW2 5894   5.707   4.006   1.383 -0.0387  1.3564  2.2524
 1482SOL     OW 5895   2.284   0.343   3.076 -0.0084  0.3012 -0.5284
 1482SOL    HW1 5896   2.311   0.251   3.066 -0.9730  0.2761 -4.3569
 1482SOL    HW2 5897   2.196   0.338   3.114 -0.1269 -0.3721 -0.8812
 1483SOL     OW 5898   6.738   1.967   6.228  0.5689  0.2610 -0.5201
 1483SOL    HW1 5899   6.709   1.892   6.279 -2.1553  0.9659 -0.8956
 1483SOL    HW2 5900   6.831   1.977   6.251  1.1266 -3.3284 -0.7154
 1484SOL     OW 5901   2.740   1.411   2.258  0.4569 -0.4683 -0.2777
 1484SOL    HW1 5902   2.691   1.419   2.176 -0.2768 -1.6133  0.0145
 1484SOL    HW2 5903   2.775   1.498   2.274  0.0355 -0.0613 -1.4558
 1485SOL     OW 5904   6.146   5.320   4.046 -0.7463  0.2733 -0.1753
 1485SOL    HW1 5905   6.192   5.287   3.968  3.3398  3.3230  0.6086
 1485SOL    HW2 5906   6.180   5.267   4.118 -0.4298  0.8990  0.1374
 1486SOL     OW 5907   6.407   6.280   2.991 -0.0800 -0.3671 -0.1541
 1486SOL    HW1 5908   6.472   6.343   2.960  0.4859  0.3508  2.3243
 1486SOL    HW2 5909   6.434   6.197   2.952  1.8342  0.0825  0.1136
 1487SOL     OW 5910   3.690   5.925   1.240 -0.1872 -0.1203 -0.0846
 1487SOL    HW1 5911   3.697   5.848   1.184 -0.4081 -0.0606 -0.1952
 1487SOL    HW2 5912   3.646   5.991   1.185 -1.7383 -0.5231  0.6153
 1488SOL     OW 5913   4.441   0.900   5.733  0.6914 -0.0418  0.0931
 1488SOL    HW1 5914   4.387   0.842   5.786  0.8147 -0.9052 -0.7030
 1488SOL    HW2 5915   4.427   0.987   5.770  0.8192 -0.6246  1.5773
 1489SOL     OW 5916   2.773   3.483   3.129 -0.4511  0.4194  0.4296
 1489SOL    HW1 5917   2.788   3.465   3.037 -1.0038  0.4961  0.3180
 1489SOL    HW2 5918   2.817   3.412   3.176  2.4962  1.9824  0.2616
 1490SOL     OW 5919   0.769   4.706   4.940  0.2701 -0.5524  0.1303
 1490SOL    HW1 5920   0.797   4.764   5.011 -0.3806  1.5439 -1.2380
 1490SOL    HW2 5921   0.684   4.672   4.969  0.4776 -0.5378  0.7693
 1491SOL     OW 5922   5.283   0.316   3.876 -0.1197 -0.5293 -0.5430
 1491SOL    HW1 5923   5.285   0.409   3.897  1.9639  0.3134 -3.7365
 1491SOL    HW2 5924   5.221   0.310   3.803 -0.2228 -1.6635 -0.3749
 1492SOL     OW 5925   6.993   4.204   6.363  0.2707 -0.1201  0.5788
 1492SOL    HW1 5926   6.900   4.206   6.384  0.1698  1.6324  0.0690
 1492SOL    HW2 5927   6.999   4.152   6.283 -0.3622  0.4271  0.1768
 1493SOL     OW 5928   5.483   6.453   4.600 -0.0271  0.0834 -0.3619
 1493SOL    HW1 5929   5.546   6.417   4.662 -0.1894  0.7690  0.2232
 1493SOL    HW2 5930   5.430   6.378   4.573  1.4126 -0.6088 -1.3448
 1494SOL     OW 5931   0.186   6.475   2.320  0.6301 -0.8721 -0.0051
 1494SOL    HW1 5932   0.101   6.440   2.294 -0.7312  2.1633 -0.0748
 1494SOL    HW2 5933   0.175   6.501   2.411  1.7261 -1.0391  0.1966
 1495SOL     OW 5934   1.190   4.446   0.021 -0.6283  0.7843  0.2846
 1495SOL    HW1 5935   1.130   4.469  -0.050 -0.4072 -0.0033 -0.1740
 1495SOL    HW2 5936   1.189   4.350   0.023 -0.1012  0.7865  0.8867
 1496SOL     OW 5937   4.974   3.746   4.125 -0.0049 -0.4578 -0.1360
 1496SOL    HW1 5938   4.910   3.795   4.072  0.1436 -0.1139 -0.0038
 1496SOL    HW2 5939   4.959   3.777   4.214  1.9184  1.4194 -0.3892
 1497SOL     OW 5940   4.851   3.844   2.095 -0.6370  0.1578  0.4006
 1497SOL    HW1 5941   4.821   3.824   2.006 -1.8759  1.4135  0.5012
 1497SOL    HW2 5942   4.802   3.923   2.120  1.2643  1.0842  1.4007
 1498SOL     OW 5943   1.182   0.103   0.973  0.1663  0.3852 -0.5263
 1498SOL    HW1 5944   1.198   0.044   1.046 -1.4068  0.3955 -0.1249
 1498SOL    HW2 5945   1.158   0.044   0.900 -2.8315  0.4855  0.2590
 1499SOL     OW 5946   4.601   6.657   4.058 -0.0064  0.2966  0.7402
 1499SOL    HW1 5947   4.648   6.579   4.028  0.0446  0.5878  0.0448
 1499SOL    HW2 5948   4.653   6.731   4.026 -1.9151  0.6680 -1.7825
 1500SOL     OW 5949   2.162   3.489   0.139 -0.3781 -0.0236  0.2973
 1500SOL    HW1 5950   2.088   3.440   0.105  0.2597 -2.3059  1.9395
 1500SOL    HW2 5951   2.217   3.423   0.181  1.2490  1.9473  1.4569
 1501SOL     OW 5952   1.673   0.454   5.102 -0.0390  0.6448  0.1561
 1501SOL    HW1 5953   1.590   0.452   5.151  1.3972 -0.6160  2.7690
 1501SOL    HW2 5954   1.704   0.363   5.106  0.4329  0.5973 -2.7989
 1502SOL     OW 5955   0.109   0.390   1.390  0.7036  0.3620  0.7157
 1502SOL    HW1 5956   0.110   0.366   1.297  0.7210 -0.1797  0.8567
 1502SOL    HW2 5957   0.119   0.486   1.389  1.4947  0.2881  0.1866
 1503SOL     OW 5958   6.397   1.482   3.541 -0.5904 -0.2713 -0.2252
 1503SOL    HW1 5959   6.417   1.410   3.602  1.3737 -0.7868 -1.3882
 1503SOL    HW2 5960   6.403   1.561   3.595 -0.5867 -0.8359  0.6214
 1504SOL     OW 5961   5.735   5.964   3.026  0.3576  0.2500  0.0591
 1504SOL    HW1 5962   5.735   5.890   2.965 -1.0666  0.6724 -0.5000
 1504SOL    HW2 5963   5.821   5.961   3.068  0.5680 -1.3175 -0.4318
 1505SOL     OW 5964   4.596   0.988   4.594  0.5477  0.4403 -0.1617
 1505SOL    HW1 5965   4.556   0.943   4.669 -1.1679  2.2278  0.0884
 1505SOL    HW2 5966   4.576   0.932   4.519 -0.7662  0.3326  0.2476
 1506SOL     OW 5967   2.961   0.956   0.140  0.3026 -0.1986  0.1890
 1506SOL    HW1 5968   2.953   0.881   0.081  3.0372 -0.4958  0.0746
 1506SOL    HW2 5969   2.945   0.921   0.227 -1.2922 -0.2726 -0.1070
 1507SOL     OW 5970   0.038   6.072   4.337  0.3502  0.2976  0.5307
 1507SOL    HW1 5971   0.099   5.999   4.340 -0.3284 -0.2459  2.0975
 1507SOL    HW2 5972   0.043   6.104   4.247  1.3588 -1.0669  0.0708
 1508SOL     OW 5973   3.426   0.632   3.174  0.0338 -0.3050 -0.0776
 1508SOL    HW1 5974   3.483   0.560   3.202  0.3688 -0.3548 -0.8783
 1508SOL    HW2 5975   3.338   0.594   3.174  0.1423 -0.5613  0.0062
 1509SOL     OW 5976   1.865   4.000   1.800 -0.5291 -0.1629  0.3343
 1509SOL    HW1 5977   1.946   3.949   1.805 -0.8836 -0.7604  0.0802
 1509SOL    HW2 5978   1.813   3.970   1.875 -1.1241 -0.8634 -0.3434
 1510SOL     OW 5979   6.092   4.823   5.031 -0.4014  0.0581  0.3762
 1510SOL    HW1 5980   6.128   4.751   5.083 -0.0944 -0.2727 -0.2897
 1510SOL    HW2 5981   6.131   4.902   5.069 -0.2706 -0.1733  0.7211
 1511SOL     OW 5982   3.453   2.257   5.619  0.0370 -0.5558 -0.1637
 1511SOL    HW1 5983   3.431   2.164   5.611  1.8322 -0.9703 -0.9054
 1511SOL    HW2 5984   3.467   2.286   5.528  1.1349 -0.0139  0.1621
 1512SOL     OW 5985   5.590   6.268   5.212 -0.8027  0.0789  0.0968
 1512SOL    HW1 5986   5.555   6.249   5.125  0.2192  2.8990 -1.0649
 1512SOL    HW2 5987   5.541   6.345   5.241  1.0944  1.2182  0.4815
 1513SOL     OW 5988   5.222   1.380   1.229 -0.3737 -0.7102  0.4336
 1513SOL    HW1 5989   5.262   1.467   1.231 -2.8017  0.4870  1.1896
 1513SOL    HW2 5990   5.249   1.343   1.145  1.8894  0.1422  0.7168
 1514SOL     OW 5991   0.111   6.396   2.913 -0.1909  0.6469  0.3605
 1514SOL    HW1 5992   0.075   6.388   3.001  0.5940  1.2954  0.7467
 1514SOL    HW2 5993   0.034   6.397   2.855 -0.7955  2.0485  1.1621
 1515SOL     OW 5994   2.400   6.221   3.890 -0.0493 -0.0933  0.2480
 1515SOL    HW1 5995   2.376   6.247   3.979 -1.8039 -0.4570 -0.0776
 1515SOL    HW2 5996   2.455   6.293   3.858 -1.6363  1.3998  0.7011
 1516SOL     OW 5997   0.297   3.014   0.165  0.3289  0.1169 -0.2818
 1516SOL    HW1 5998   0.244   3.022   0.245 -0.2562  0.1458 -0.6666
 1516SOL    HW2 5999   0.233   3.013   0.094  0.8980  1.6347 -0.8708
 1517SOL     OW 6000   0.425   6.149   3.444 -0.9761  0.2031 -0.0464
 1517SOL    HW1 6001   0.503   6.190   3.409 -0.4296  0.2492  1.1768
 1517SOL    HW2 6002   0.421   6.178   3.535 -0.7071 -2.2162  0.8165
 1518SOL     OW 6003   1.850   1.664   0.038  0.0859 -0.7932 -0.1445
 1518SOL    HW1 6004   1.760   1.699   0.031  0.9198  1.6799  0.3261
 1518SOL    HW2 6005   1.841   1.571   0.018 -2.1808 -0.1352 -2.9766
 1519SOL     OW 6006   1.743   0.682   3.899  0.7013  0.1687 -0.4357
 1519SOL    HW1 6007   1.823   0.734   3.902  0.3506  0.6902  0.0423
 1519SOL    HW2 6008   1.753   0.627   3.821  0.6819  1.6294 -1.5281
 1520SOL     OW 6009   3.114   2.850   2.782 -0.3639 -0.6139  0.4739
 1520SOL    HW1 6010   3.132   2.875   2.691 -1.2244 -2.4925 -0.2788
 1520SOL    HW2 6011   3.139   2.926   2.834  0.0529  0.5501 -1.3500
 1521SOL     OW 6012   1.706   6.502   0.240 -0.4584  0.4834  0.0198
 1521SOL    HW1 6013   1.616   6.526   0.219 -0.1477  1.4133 -0.2718
 1521SOL    HW2 6014   1.752   6.503   0.156  0.0316  0.9428  0.2865
 1522SOL     OW 6015   4.656   3.362   5.941 -0.8035  0.2688 -0.4363
 1522SOL    HW1 6016   4.628   3.273   5.921 -1.5788  0.0363  1.4922
 1522SOL    HW2 6017   4.603   3.417   5.883  1.4356 -0.5151 -3.5057
 1523SOL     OW 6018   2.308   5.254   0.511  0.1376 -0.0270 -0.1890
 1523SOL    HW1 6019   2.222   5.215   0.521 -0.2345  1.0420  0.9226
 1523SOL    HW2 6020   2.363   5.183   0.477 -1.0446 -0.8566 -0.4029
 1524SOL     OW 6021   7.103   1.725   1.300  0.0415 -0.2047 -0.6626
 1524SOL    HW1 6022   7.180   1.721   1.243  0.1197 -0.9256 -0.5108
 1524SOL    HW2 6023   7.134   1.694   1.385 -0.5607 -1.0940 -0.7552
 1525SOL     OW 6024   7.032   2.064   6.708 -0.3203  0.6597 -0.4440
 1525SOL    HW1 6025   6.965   2.091   6.646 -0.9505 -0.8700 -0.4726
 1525SOL    HW2 6026   7.111   2.052   6.655 -0.0175  2.3722 -0.4225
 1526SOL     OW 6027   1.634   5.480   1.889 -0.1678 -0.5574 -0.4157
 1526SOL    HW1 6028   1.699   5.420   1.925 -0.1602 -0.9011 -0.9791
 1526SOL    HW2 6029   1.564   5.423   1.857 -0.5188 -0.2168 -0.2529
 1527SOL     OW 6030   5.052   3.871   5.065  0.2659 -0.1297  0.6098
 1527SOL    HW1 6031   4.960   3.893   5.082  0.2223  0.4765 -0.3452
 1527SOL    HW2 6032   5.095   3.956   5.054  1.1419 -0.3620  1.9721
 1528SOL     OW 6033   4.482   0.478   5.695 -0.3428 -0.2650 -0.5247
 1528SOL    HW1 6034   4.502   0.396   5.649 -1.2264 -1.2052  0.6960
 1528SOL    HW2 6035   4.389   0.494   5.675 -0.9252 -1.0365  1.3949
 1529SOL     OW 6036   5.687   0.876   7.001  0.1814  0.2051  0.2518
 1529SOL    HW1 6037   5.646   0.801   7.043  1.2656 -0.0862  0.8306
 1529SOL    HW2 6038   5.746   0.911   7.068 -2.6751  3.6495  1.2755
 1530SOL     OW 6039   0.500   3.267   4.976  0.5312  0.2433 -0.0249
 1530SOL    HW1 6040   0.469   3.182   4.944  1.8907 -0.1024 -0.4513
 1530SOL    HW2 6041   0.437   3.290   5.045  0.4232 -1.3329  0.4517
 1531SOL     OW 6042   4.867   2.179   3.607  0.6627 -0.5156 -0.4192
 1531SOL    HW1 6043   4.878   2.216   3.695 -0.0560 -1.1977 -0.0382
 1531SOL    HW2 6044   4.784   2.133   3.610  0.9390 -1.0913 -1.2737
 1532SOL     OW 6045   1.597   4.045   5.929  0.4987  0.3998  0.4579
 1532SOL    HW1 6046   1.678   4.016   5.886  0.2755 -1.2888  1.0875
 1532SOL    HW2 6047   1.528   4.024   5.866  0.6482  4.2351 -1.2296
 1533SOL     OW 6048   1.323   1.761   2.403  0.5156  0.3963  0.2229
 1533SOL    HW1 6049   1.399   1.818   2.387  0.0223  0.7303 -1.0294
 1533SOL    HW2 6050   1.263   1.781   2.332 -0.4156 -0.4555  0.7512
 1534SOL     OW 6051   4.194   0.564   2.864 -0.4737 -0.1802  0.7263
 1534SOL    HW1 6052   4.181   0.474   2.891 -1.1534 -0.0301  0.9227
 1534SOL    HW2 6053   4.147   0.572   2.781 -1.0875  0.1915  1.1000
 1535SOL     OW 6054   3.951   2.773   1.253  0.3672  0.4345 -0.1046
 1535SOL    HW1 6055   3.921   2.686   1.280  2.2724  0.1823  1.4482
 1535SOL    HW2 6056   4.043   2.760   1.227  0.8285  2.0326  0.5732
 1536SOL     OW 6057   3.877   5.948   2.725 -0.1352  0.8845  0.3841
 1536SOL    HW1 6058   3.912   5.963   2.813 -0.1598  1.2583  0.3305
 1536SOL    HW2 6059   3.803   5.889   2.738  1.2569 -0.9773  0.3842
 1537SOL     OW 6060   2.429   6.528   2.723 -0.0912  0.3159 -0.1974
 1537SOL    HW1 6061   2.359   6.539   2.788  0.7392 -1.7620  1.1734
 1537SOL    HW2 6062   2.445   6.433   2.722  0.5765  0.4012 -2.7932
 1538SOL     OW 6063   3.208   4.026   3.936  0.5304 -0.1715  0.3249
 1538SOL    HW1 6064   3.127   4.005   3.982 -0.0356 -1.2954 -1.0980
 1538SOL    HW2 6065   3.275   3.975   3.981  0.0167 -1.1081  0.0620
 1539SOL     OW 6066   2.570   6.792   3.117  0.8785  0.3015 -0.0196
 1539SOL    HW1 6067   2.660   6.824   3.114  0.5374  1.2369 -0.6366
 1539SOL    HW2 6068   2.546   6.776   3.026  0.6410 -0.6198  0.1865
 1540SOL     OW 6069   1.007   1.590   6.377  0.1526  0.2490 -0.7295
 1540SOL    HW1 6070   1.071   1.520   6.369 -1.0010 -1.2071  1.7120
 1540SOL    HW2 6071   1.036   1.640   6.454 -0.7042  0.6168 -0.6351
 1541SOL     OW 6072   2.886   0.208   0.221 -0.1214 -0.2564  0.1128
 1541SOL    HW1 6073   2.935   0.190   0.141 -0.0955 -0.6640  0.2179
 1541SOL    HW2 6074   2.819   0.139   0.225 -0.0950 -0.2658  0.4623
 1542SOL     OW 6075   4.405   5.696   4.407 -0.0705  0.0979 -0.5288
 1542SOL    HW1 6076   4.369   5.613   4.440  1.1637 -0.6468 -0.9644
 1542SOL    HW2 6077   4.373   5.701   4.317 -0.5736  0.3569 -0.3353
 1543SOL     OW 6078   5.360   4.729   3.427  0.7314 -0.5490 -0.3161
 1543SOL    HW1 6079   5.386   4.795   3.364 -0.8458  1.9212  1.4506
 1543SOL    HW2 6080   5.270   4.707   3.402 -0.0329  0.7102  1.1781
 1544SOL     OW 6081   6.788   4.953   6.733 -0.3318 -0.0418  0.7821
 1544SOL    HW1 6082   6.823   4.869   6.702 -1.6810 -0.1678 -0.4779
 1544SOL    HW2 6083   6.864   4.997   6.771  0.6167 -1.4104  0.5534
 1545SOL     OW 6084   0.862   5.983   5.630 -0.3995  0.0975 -0.5537
 1545SOL    HW1 6085   0.829   6.047   5.567  0.9947  0.7623 -0.6496
 1545SOL    HW2 6086   0.824   6.010   5.714 -2.9496 -1.2861 -1.1686
 1546SOL     OW 6087   5.157   2.021   6.823 -0.0405 -0.0107 -0.2514
 1546SOL    HW1 6088   5.127   1.951   6.764  0.9142  2.0926 -3.5247
 1546SOL    HW2 6089   5.247   2.037   6.796 -0.1493  2.2782  0.5609
 1547SOL     OW 6090   3.978   0.386   2.261  0.3475  0.5980  0.0921
 1547SOL    HW1 6091   3.951   0.300   2.230  2.2170  0.3210 -0.8988
 1547SOL    HW2 6092   3.901   0.441   2.249 -0.7628 -0.8288  0.3958
 1548SOL     OW 6093   2.685   2.161   2.338 -0.5179  0.2494 -0.1139
 1548SOL    HW1 6094   2.708   2.121   2.254 -1.4138  0.0444 -0.2756
 1548SOL    HW2 6095   2.768   2.169   2.384  0.0216  0.5906 -1.1170
 1549SOL     OW 6096   0.269   3.229   3.247 -0.6892 -0.7027 -0.6120
 1549SOL    HW1 6097   0.307   3.317   3.246 -0.6050 -0.7172  0.2671
 1549SOL    HW2 6098   0.313   3.184   3.175  0.0281 -0.3331 -0.4226
 1550SOL     OW 6099   2.631   3.232   0.071 -0.5687 -0.3705  0.6715
 1550SOL    HW1 6100   2.550   3.275   0.098 -0.3155  0.7570 -0.2667
 1550SOL    HW2 6101   2.607   3.182  -0.007  0.4030  3.6639 -2.5858
 1551SOL     OW 6102   1.969   4.243   0.381  0.2918  0.5080 -0.0955
 1551SOL    HW1 6103   1.978   4.321   0.436 -1.7318  0.4922  0.3435
 1551SOL    HW2 6104   1.905   4.269   0.315  1.1661 -0.1427 -1.2263
 1552SOL     OW 6105   1.109   7.003   3.118  0.1142  0.7257 -0.3222
 1552SOL    HW1 6106   1.029   6.993   3.169  1.4979 -0.0598  1.8220
 1552SOL    HW2 6107   1.088   6.964   3.033 -1.5271 -0.2050  0.4611
 1553SOL     OW 6108   5.933   6.090   6.412 -0.6728  0.0214 -0.1326
 1553SOL    HW1 6109   5.938   6.146   6.335 -0.7649 -0.6563 -0.6408
 1553SOL    HW2 6110   5.866   6.131   6.468 -0.5564  0.5505 -0.3818
 1554SOL     OW 6111   6.494   3.105   5.805 -0.2624 -0.1769 -0.1941
 1554SOL    HW1 6112   6.556   3.074   5.871 -0.7372 -1.3546 -0.2763
 1554SOL    HW2 6113   6.454   3.182   5.844  0.5240 -0.0035  0.2797
 1555SOL     OW 6114   2.952   3.980   1.695 -0.5680 -0.5235  0.3542
 1555SOL    HW1 6115   2.895   3.919   1.740  0.3627 -0.4673  1.6499
 1555SOL    HW2 6116   2.894   4.026   1.634 -1.3682 -2.3505 -0.3470
 1556SOL     OW 6117   4.534   4.257   1.878  0.1086  0.2402  0.3860
 1556SOL    HW1 6118   4.550   4.273   1.971  0.3130 -2.1869  0.8255
 1556SOL    HW2 6119   4.443   4.226   1.874 -0.1753  1.1118 -0.3625
 1557SOL     OW 6120   2.123   6.716   0.117 -0.0421  0.0598 -0.6533
 1557SOL    HW1 6121   2.085   6.629   0.104 -1.5047  0.6883 -0.8532
 1557SOL    HW2 6122   2.095   6.765   0.040 -2.5153  1.7572  1.1851
 1558SOL     OW 6123   4.917   1.167   0.679  0.0417 -0.2591  0.3639
 1558SOL    HW1 6124   5.001   1.197   0.714 -1.5215  0.9946  3.5030
 1558SOL    HW2 6125   4.904   1.081   0.719 -0.1486 -0.4596 -0.1282
 1559SOL     OW 6126   3.489   1.044   5.565  0.5761 -0.0662 -0.0651
 1559SOL    HW1 6127   3.509   0.951   5.567 -2.3916 -0.8152  0.2840
 1559SOL    HW2 6128   3.396   1.049   5.590  0.4398  2.9183 -0.7647
 1560SOL     OW 6129   3.463   6.191   5.696  0.0104 -0.4353  0.0255
 1560SOL    HW1 6130   3.405   6.220   5.766 -0.1675 -3.9670  1.5437
 1560SOL    HW2 6131   3.406   6.145   5.635  0.1780  2.4850 -2.5970
 1561SOL     OW 6132   6.091   1.362   5.775 -0.1474  0.6368 -0.4915
 1561SOL    HW1 6133   6.123   1.444   5.737 -2.2969  0.9533 -1.7821
 1561SOL    HW2 6134   6.116   1.295   5.711  1.2993  0.2778  0.3954
 1562SOL     OW 6135   6.170   4.992   4.438  0.3256 -0.0638 -0.8312
 1562SOL    HW1 6136   6.192   5.029   4.352 -1.7519 -2.6655 -2.6493
 1562SOL    HW2 6137   6.160   4.899   4.422  0.1036 -0.7038  2.3661
 1563SOL     OW 6138   1.831   5.089   5.640  0.2656 -0.0946 -0.1078
 1563SOL    HW1 6139   1.748   5.103   5.685  1.6241  0.0400  2.5703
 1563SOL    HW2 6140   1.821   5.135   5.556 -0.9206  3.5414  1.8164
 1564SOL     OW 6141   1.090   5.489   2.016  0.3492  0.2437  0.6628
 1564SOL    HW1 6142   1.176   5.473   2.055  0.7568  0.4291 -0.1446
 1564SOL    HW2 6143   1.095   5.579   1.982  0.3264 -0.2201 -0.6149
 1565SOL     OW 6144   5.881   5.464   6.357 -0.0602  0.3351 -0.3084
 1565SOL    HW1 6145   5.848   5.422   6.437 -2.5104 -0.7153 -1.7568
 1565SOL    HW2 6146   5.886   5.392   6.293  0.7757  1.3536 -1.4247
 1566SOL     OW 6147   4.575   1.136   6.851  0.2165 -0.0951 -0.3667
 1566SOL    HW1 6148   4.537   1.207   6.800 -1.2603 -1.3210 -1.0675
 1566SOL    HW2 6149   4.507   1.112   6.914 -0.3481 -2.3967 -1.6984
 1567SOL     OW 6150   7.051   3.597   1.568 -0.5846  0.3041  0.5490
 1567SOL    HW1 6151   6.971   3.582   1.618 -2.4073  3.7208 -1.0128
 1567SOL    HW2 6152   7.021   3.609   1.478  1.7706  0.9842 -0.2218
 1568SOL     OW 6153   5.534   1.400   5.563  0.0109 -0.9134  0.6850
 1568SOL    HW1 6154   5.473   1.376   5.493  1.6401  1.3156 -1.6535
 1568SOL    HW2 6155   5.478   1.411   5.640 -2.1331 -1.5225 -0.6870
 1569SOL     OW 6156   3.353   6.602   2.872 -0.0219  0.2765  0.4909
 1569SOL    HW1 6157   3.393   6.681   2.907  1.8939 -0.3122 -0.2257
 1569SOL    HW2 6158   3.261   6.625   2.858  0.7925  2.9102 -1.2314
 1570SOL     OW 6159   6.750   1.761   1.942 -0.0303  0.2846  0.1372
 1570SOL    HW1 6160   6.838   1.774   1.905  0.2574 -0.9779  0.3476
 1570SOL    HW2 6161   6.745   1.667   1.960 -2.0404  0.0443 -1.4155
 1571SOL     OW 6162   4.685   2.276   6.928  0.0796 -0.0972  0.3453
 1571SOL    HW1 6163   4.603   2.295   6.882 -1.2629 -2.3748  1.5740
 1571SOL    HW2 6164   4.710   2.189   6.897  1.8296  0.3909  0.3076
 1572SOL     OW 6165   4.524   6.352   5.221  0.0855  0.0956  0.1100
 1572SOL    HW1 6166   4.492   6.269   5.185  0.5253  0.1079 -0.3077
 1572SOL    HW2 6167   4.457   6.416   5.197 -1.1930 -0.4432  1.9999
 1573SOL     OW 6168   5.905   0.297   4.236 -0.1528  0.1262 -0.2173
 1573SOL    HW1 6169   5.886   0.245   4.314 -0.6705 -0.2432 -0.5882
 1573SOL    HW2 6170   5.829   0.353   4.225 -0.8870 -1.0691 -1.4692
 1574SOL     OW 6171   1.243   0.112   0.648 -0.0054 -0.0829  0.1140
 1574SOL    HW1 6172   1.327   0.148   0.677  1.6708 -3.4276 -0.0537
 1574SOL    HW2 6173   1.236   0.138   0.556  1.3911 -0.5907 -0.1567
 1575SOL     OW 6174   5.172   6.886   2.827 -0.0820 -0.0612  0.6077
 1575SOL    HW1 6175   5.156   6.886   2.921 -2.1979 -1.4503  0.3123
 1575SOL    HW2 6176   5.244   6.823   2.815  0.2009  0.1277  1.2906
 1576SOL     OW 6177   5.949   4.306   5.581 -0.0621 -0.4771 -0.2456
 1576SOL    HW1 6178   5.975   4.216   5.600  0.8653 -0.0050  0.8804
 1576SOL    HW2 6179   6.008   4.359   5.634 -1.5963  0.7518  0.2969
 1577SOL     OW 6180   1.668   3.673   4.426 -0.0177  0.4324  0.1281
 1577SOL    HW1 6181   1.754   3.713   4.416  1.4719 -2.5771  0.0321
 1577SOL    HW2 6182   1.639   3.656   4.336 -0.4726  0.8996  0.1791
 1578SOL     OW 6183   2.089   5.409   0.169  0.0615  0.1980  0.0587
 1578SOL    HW1 6184   1.995   5.412   0.147 -0.0461  1.6437  0.6296
 1578SOL    HW2 6185   2.092   5.427   0.263  0.9285  0.1710  0.0439
 1579SOL     OW 6186   2.600   7.137   4.080 -1.0224  0.0309 -0.2168
 1579SOL    HW1 6187   2.660   7.090   4.022  0.7934  2.4857 -0.4728
 1579SOL    HW2 6188   2.573   7.214   4.030 -3.5575 -0.4311  0.3298
 1580SOL     OW 6189   6.383   2.843   3.190 -0.1018  0.2666 -0.2449
 1580SOL    HW1 6190   6.292   2.868   3.204 -0.3561 -0.5338 -0.4358
 1580SOL    HW2 6191   6.384   2.800   3.105  0.1284 -1.1982  0.4597
 1581SOL     OW 6192   5.371   5.405   6.138  0.1817 -0.1444 -0.5631
 1581SOL    HW1 6193   5.334   5.443   6.218  1.4979  3.0893 -1.3361
 1581SOL    HW2 6194   5.341   5.463   6.068  1.3746 -1.2582 -2.0623
 1582SOL     OW 6195   5.977   2.764   3.105  0.2571 -0.7991  0.4728
 1582SOL    HW1 6196   6.001   2.826   3.174  1.1207 -1.5179  0.8493
 1582SOL    HW2 6197   5.956   2.819   3.029  0.8192 -0.0354  0.8526
 1583SOL     OW 6198   2.242   3.677   0.548 -0.7423  0.4517  0.2107
 1583SOL    HW1 6199   2.160   3.655   0.592 -0.4006  0.7006  0.9952
 1583SOL    HW2 6200   2.271   3.758   0.590 -0.1423  0.4168 -0.1241
 1584SOL     OW 6201   5.763   6.011   1.682  0.1272 -0.2263  0.7740
 1584SOL    HW1 6202   5.686   5.977   1.636  0.8391 -0.9853  0.0952
 1584SOL    HW2 6203   5.729   6.079   1.739 -1.2708 -1.4920  1.5442
 1585SOL     OW 6204   5.945   1.903   4.257  0.4731  0.0303  0.2264
 1585SOL    HW1 6205   5.924   1.959   4.182 -0.6857 -0.2433  0.3188
 1585SOL    HW2 6206   5.988   1.961   4.319 -1.2641  1.0136  0.5772
 1586SOL     OW 6207   0.092   4.288   1.082 -0.1246  0.2879  0.2588
 1586SOL    HW1 6208   0.037   4.357   1.118 -2.0947 -1.5099  0.8673
 1586SOL    HW2 6209   0.181   4.325   1.084 -0.6719  1.7435  3.2926
 1587SOL     OW 6210   2.019   6.845   0.635  0.0890  0.8120 -0.4476
 1587SOL    HW1 6211   2.002   6.910   0.566  0.6162 -0.1336 -1.4850
 1587SOL    HW2 6212   2.110   6.860   0.659  0.2541  0.3544 -0.7932
 1588SOL     OW 6213   4.267   5.976   4.133 -0.0199 -0.3855 -0.0903
 1588SOL    HW1 6214   4.310   6.058   4.111 -0.1040 -0.6843 -1.4382
 1588SOL    HW2 6215   4.332   5.909   4.113 -1.0717 -0.8539 -2.2745
 1589SOL     OW 6216   3.942   1.801   1.572 -0.1976 -0.1718 -0.1900
 1589SOL    HW1 6217   3.917   1.883   1.529 -0.8740 -1.1249 -1.7083
 1589SOL    HW2 6218   4.004   1.760   1.511 -1.0901 -1.5145 -0.2245
 1590SOL     OW 6219   3.023   2.185   0.619  0.6842 -0.7689  0.5859
 1590SOL    HW1 6220   3.086   2.257   0.624 -0.6310  0.4097  0.7000
 1590SOL    HW2 6221   2.973   2.202   0.540 -0.8233 -0.5457  1.5564
 1591SOL     OW 6222   3.709   3.566   1.380 -0.5403 -0.0151  0.0470
 1591SOL    HW1 6223   3.651   3.587   1.306  0.0142  1.7279  0.0637
 1591SOL    HW2 6224   3.658   3.590   1.458 -0.3273  0.1932  0.1238
 1592SOL     OW 6225   6.103   4.275   0.589 -0.1991 -0.0221 -0.4439
 1592SOL    HW1 6226   6.193   4.247   0.601  0.8820  2.9829 -0.7094
 1592SOL    HW2 6227   6.076   4.238   0.505  2.0028  1.6550 -1.9996
 1593SOL     OW 6228   5.885   1.601   5.491 -0.1835 -0.2671 -0.6514
 1593SOL    HW1 6229   5.947   1.673   5.481  0.4344 -0.6224  0.3792
 1593SOL    HW2 6230   5.821   1.633   5.555  1.1753 -1.2520  1.3195
 1594SOL     OW 6231   0.958   2.666   4.859 -0.2720 -0.1677  0.0649
 1594SOL    HW1 6232   0.916   2.659   4.774  0.0427  0.1434 -0.1178
 1594SOL    HW2 6233   0.885   2.664   4.922 -0.5743  0.4457 -0.2532
 1595SOL     OW 6234   1.800   5.383   0.163  0.5968 -0.0277  0.0753
 1595SOL    HW1 6235   1.770   5.295   0.144  1.8428 -0.6853  1.0055
 1595SOL    HW2 6236   1.722   5.430   0.192  0.2499 -1.3854  1.4590
 1596SOL     OW 6237   3.179   2.978   5.138 -0.0850 -0.2841 -0.0770
 1596SOL    HW1 6238   3.235   2.904   5.116 -1.0969 -1.0490 -0.1304
 1596SOL    HW2 6239   3.133   2.951   5.217 -3.9082 -1.7292 -2.5044
 1597SOL     OW 6240   2.840   1.151   4.383 -0.4269  0.2038  0.5887
 1597SOL    HW1 6241   2.802   1.065   4.400 -1.0557  0.4791  0.6286
 1597SOL    HW2 6242   2.784   1.211   4.432  1.7200  0.3989  2.9635
 1598SOL     OW 6243   5.684   3.187   2.755  0.6479  0.7495 -0.0081
 1598SOL    HW1 6244   5.729   3.205   2.673  0.7538  2.1613  0.3284
 1598SOL    HW2 6245   5.607   3.244   2.753 -0.6009 -0.8463 -0.1102
 1599SOL     OW 6246   0.290   3.320   1.922  0.6302 -0.5008  0.3412
 1599SOL    HW1 6247   0.259   3.271   1.846 -0.5047 -0.4255  0.7317
 1599SOL    HW2 6248   0.357   3.379   1.887  2.1592 -2.4261 -0.1028
 1600SOL     OW 6249   3.810   2.292   4.153  0.0287  0.0643 -0.2110
 1600SOL    HW1 6250   3.872   2.248   4.095 -1.3866 -0.6555 -1.2261
 1600SOL    HW2 6251   3.745   2.331   4.093 -1.0447 -0.0491  0.8510
 1601SOL     OW 6252   2.297   3.893   0.043 -0.4551  0.6093  0.0745
 1601SOL    HW1 6253   2.385   3.861   0.062 -1.1187  0.5027  3.6952
 1601SOL    HW2 6254   2.261   3.829  -0.018  0.4678 -2.0105  2.0806
 1602SOL     OW 6255   6.298   0.848   0.539  0.2678 -0.8091  0.1943
 1602SOL    HW1 6256   6.226   0.852   0.476  0.8338 -2.1153 -0.5736
 1602SOL    HW2 6257   6.257   0.867   0.623 -0.7661 -0.4282 -0.3795
 1603SOL     OW 6258   0.564   3.927   0.609 -0.6666  0.0580 -0.4776
 1603SOL    HW1 6259   0.532   3.885   0.689 -1.6123  1.7867  0.1077
 1603SOL    HW2 6260   0.484   3.952   0.562 -0.1221 -0.2054 -1.5922
 1604SOL     OW 6261   4.313   0.895   1.841 -0.2507 -0.1581 -0.4991
 1604SOL    HW1 6262   4.262   0.932   1.913 -1.3123 -0.8480 -0.8753
 1604SOL    HW2 6263   4.401   0.883   1.878 -0.8884 -0.9323  0.8266
 1605SOL     OW 6264   0.102   4.819   6.790  0.1529 -0.0693  0.5083
 1605SOL    HW1 6265   0.068   4.768   6.863  1.9156 -2.6171 -0.3049
 1605SOL    HW2 6266   0.075   4.771   6.712  1.4417  0.5023 -0.3339
 1606SOL     OW 6267   4.222   0.393   3.303 -0.1980 -0.2129  0.4046
 1606SOL    HW1 6268   4.158   0.325   3.323  0.4504 -1.2131 -0.7522
 1606SOL    HW2 6269   4.307   0.352   3.321  0.1507  1.0812  1.8987
 1607SOL     OW 6270   3.351   2.434   5.410 -0.1734 -0.1731 -0.2643
 1607SOL    HW1 6271   3.409   2.473   5.345  0.5571 -1.3478 -0.3526
 1607SOL    HW2 6272   3.287   2.385   5.359 -0.5793  0.2013 -0.1287
 1608SOL     OW 6273   1.597   5.683   2.926  0.1040 -0.5199  0.5321
 1608SOL    HW1 6274   1.591   5.639   2.842 -0.5172  0.7400 -0.1270
 1608SOL    HW2 6275   1.508   5.714   2.943  0.6807  1.3585  0.4247
 1609SOL     OW 6276   2.336   4.266   3.800 -0.4356 -0.1955  0.1588
 1609SOL    HW1 6277   2.274   4.195   3.783 -1.1278  0.3842  0.2084
 1609SOL    HW2 6278   2.304   4.307   3.880  0.4614 -0.3628  0.6184
 1610SOL     OW 6279   3.538   5.328   5.904  0.2303 -0.6770  0.0285
 1610SOL    HW1 6280   3.468   5.387   5.932  0.2127 -1.8693  2.9289
 1610SOL    HW2 6281   3.579   5.372   5.829 -2.1827  1.0958 -0.3568
 1611SOL     OW 6282   2.519   1.704   1.648  0.1584  0.4315 -0.2863
 1611SOL    HW1 6283   2.518   1.624   1.700  1.6381 -0.2747 -1.2708
 1611SOL    HW2 6284   2.439   1.700   1.596  0.6138 -0.8631 -0.9323
 1612SOL     OW 6285   2.409   6.474   1.252 -0.1800  0.2648 -0.0898
 1612SOL    HW1 6286   2.333   6.428   1.287  0.5520  0.3904  1.7777
 1612SOL    HW2 6287   2.372   6.545   1.200 -1.4471  1.7728  2.6709
 1613SOL     OW 6288   0.787   1.011   7.004  0.4905  1.0419 -0.3563
 1613SOL    HW1 6289   0.780   0.921   6.972 -0.6903  0.9214  0.1901
 1613SOL    HW2 6290   0.770   1.065   6.927  0.8140  0.8003 -0.6020
 1614SOL     OW 6291   6.234   0.187   3.107  0.1291  0.3176  0.0924
 1614SOL    HW1 6292   6.147   0.187   3.146 -0.1813  0.3938 -0.6004
 1614SOL    HW2 6293   6.257   0.280   3.099  0.0370  0.3086 -0.2614
 1615SOL     OW 6294   6.916   5.644   3.984 -0.5089 -0.2719 -0.1777
 1615SOL    HW1 6295   6.859   5.608   3.916 -1.7718 -0.1257  0.7722
 1615SOL    HW2 6296   6.937   5.569   4.040 -2.3591  0.2013  1.2507
 1616SOL     OW 6297   4.159   6.625   3.055 -0.1816 -0.0596  0.3273
 1616SOL    HW1 6298   4.223   6.657   3.119  1.2485  0.8401 -1.4670
 1616SOL    HW2 6299   4.108   6.703   3.032 -0.5651 -0.3379  0.2222
 1617SOL     OW 6300   2.793   6.751   5.928 -0.2949  0.0878 -0.2372
 1617SOL    HW1 6301   2.808   6.791   6.014  0.0752 -2.3412  0.8968
 1617SOL    HW2 6302   2.799   6.824   5.867 -0.5946  1.9103  1.7773
 1618SOL     OW 6303   4.466   2.273   1.905 -0.2976 -0.3772  0.2643
 1618SOL    HW1 6304   4.423   2.334   1.965  0.2386  0.6370 -0.3406
 1618SOL    HW2 6305   4.444   2.186   1.938  0.1723  0.1442  2.0680
 1619SOL     OW 6306   5.161   6.882   6.896  0.1083  0.0395 -0.6830
 1619SOL    HW1 6307   5.171   6.941   6.970 -0.4487 -0.5820 -0.1046
 1619SOL    HW2 6308   5.230   6.909   6.835  0.7212  0.4045  0.1527
 1620SOL     OW 6309   0.041   6.741   4.481  0.0923 -0.3321  0.4459
 1620SOL    HW1 6310  -0.026   6.809   4.475 -0.6771 -1.0137  1.1811
 1620SOL    HW2 6311   0.104   6.776   4.545  0.6752  0.4716 -0.5226
 1621SOL     OW 6312   3.465   6.995   0.815  0.1603 -0.2368 -0.6346
 1621SOL    HW1 6313   3.517   7.066   0.778  1.8731 -0.7574  0.5811
 1621SOL    HW2 6314   3.379   7.032   0.830  0.5015  1.0362 -1.6782
 1622SOL     OW 6315   5.277   5.438   5.069 -0.3788 -0.0615 -0.1737
 1622SOL    HW1 6316   5.236   5.392   4.995 -1.0367  0.4980 -0.1698
 1622SOL    HW2 6317   5.207   5.494   5.104  1.0297  3.0410 -1.8697
 1623SOL     OW 6318   6.521   1.257   1.296  0.1580  0.0515 -0.3849
 1623SOL    HW1 6319   6.572   1.331   1.265  0.1122  0.9416  1.5192
 1623SOL    HW2 6320   6.449   1.249   1.233  1.1212  0.4824 -1.5820
 1624SOL     OW 6321   3.652   5.412   0.508  0.3272 -0.0228 -0.0781
 1624SOL    HW1 6322   3.624   5.503   0.512  1.5584  0.4824 -1.9968
 1624SOL    HW2 6323   3.586   5.369   0.455 -0.2456 -0.2800  0.8146
 1625SOL     OW 6324   5.368   6.514   0.359  0.2680 -0.3605  0.0691
 1625SOL    HW1 6325   5.288   6.466   0.337 -1.2800  1.4183  1.5096
 1625SOL    HW2 6326   5.410   6.530   0.274 -0.8039 -1.4396 -0.7147
 1626SOL     OW 6327   6.112   0.092   3.656 -0.0762  0.3249  0.1290
 1626SOL    HW1 6328   6.086   0.178   3.623  0.1131  0.3381  0.0084
 1626SOL    HW2 6329   6.030   0.045   3.669 -0.1561  0.2932 -0.4458
 1627SOL     OW 6330   1.445   6.570   5.705 -0.3783  0.5036  0.2704
 1627SOL    HW1 6331   1.527   6.533   5.736 -0.6585  0.0366  0.4648
 1627SOL    HW2 6332   1.430   6.528   5.620 -0.5879  0.3364  0.3905
 1628SOL     OW 6333   4.016   4.178   0.873 -0.5158  0.3097  0.0200
 1628SOL    HW1 6334   4.038   4.228   0.952  0.0926  0.1846 -0.0645
 1628SOL    HW2 6335   4.034   4.087   0.896  0.9611  0.3891 -0.6706
 1629SOL     OW 6336   3.133   6.736   4.650  0.0192 -0.6143 -0.3215
 1629SOL    HW1 6337   3.085   6.670   4.700 -0.0487 -0.2651  0.0817
 1629SOL    HW2 6338   3.223   6.705   4.648 -0.1148 -0.9893 -0.5962
 1630SOL     OW 6339   5.652   5.017   6.687 -0.0928 -0.2588 -0.4341
 1630SOL    HW1 6340   5.744   5.045   6.683 -0.6454  1.6830 -0.6194
 1630SOL    HW2 6341   5.626   5.012   6.595 -0.7894  1.5405 -0.3742
 1631SOL     OW 6342   3.246   2.617   3.121 -0.0943  0.2172  0.6264
 1631SOL    HW1 6343   3.306   2.614   3.196  2.3663 -0.6465 -1.2169
 1631SOL    HW2 6344   3.227   2.525   3.103 -0.7653  0.4194  0.2898
 1632SOL     OW 6345   4.062   4.389   5.603 -0.2157  0.8457 -0.3899
 1632SOL    HW1 6346   3.972   4.355   5.601 -0.3312  1.0423  0.7521
 1632SOL    HW2 6347   4.070   4.437   5.520 -0.6350 -0.4409 -1.2109
 1633SOL     OW 6348   0.660   4.985   1.493 -0.7401 -0.3945  0.1511
 1633SOL    HW1 6349   0.568   5.010   1.500 -1.0269 -1.4692  0.4540
 1633SOL    HW2 6350   0.700   5.018   1.574 -1.1079 -0.8876  0.5435
 1634SOL     OW 6351   4.403   4.369   6.599 -0.0373  0.5539 -0.0891
 1634SOL    HW1 6352   4.331   4.339   6.544  1.0248 -0.6063 -0.9108
 1634SOL    HW2 6353   4.403   4.464   6.588  1.9487  0.2830 -4.6290
 1635SOL     OW 6354   0.307   2.289   3.476  0.5753 -0.0625  0.1003
 1635SOL    HW1 6355   0.275   2.372   3.512 -1.0995 -0.4950 -0.3269
 1635SOL    HW2 6356   0.393   2.278   3.517  0.9025  1.9312  0.0671
 1636SOL     OW 6357   4.894   2.839   0.688  0.3828 -0.5315 -0.2432
 1636SOL    HW1 6358   4.989   2.822   0.690  0.6021  0.2515  3.5358
 1636SOL    HW2 6359   4.878   2.895   0.764 -3.1126 -0.3525 -0.9450
 1637SOL     OW 6360   4.092   0.146   6.651  0.1882 -0.4639 -0.2272
 1637SOL    HW1 6361   4.179   0.186   6.654 -1.1246  2.8486 -1.3304
 1637SOL    HW2 6362   4.077   0.128   6.559 -0.5959 -0.2198 -0.1549
 1638SOL     OW 6363   6.542   3.556   6.994 -0.1309 -0.5037  0.0128
 1638SOL    HW1 6364   6.578   3.552   6.905  1.4521  1.2586  0.5227
 1638SOL    HW2 6365   6.597   3.619   7.040 -1.8354 -0.2499  1.8475
 1639SOL     OW 6366   5.860   2.824   5.838  0.0058  0.6605 -0.7048
 1639SOL    HW1 6367   5.853   2.919   5.850  1.5772  0.7577 -0.3855
 1639SOL    HW2 6368   5.947   2.802   5.871 -0.4564 -0.9497 -0.4807
 1640SOL     OW 6369   6.425   3.896   2.234  0.2520 -0.7272 -0.4845
 1640SOL    HW1 6370   6.492   3.838   2.271  1.6172 -0.3227 -2.2304
 1640SOL    HW2 6371   6.402   3.856   2.150 -1.6797 -0.8068  0.0271
 1641SOL     OW 6372   2.703   5.749   1.770  0.1328  0.0506  0.0396
 1641SOL    HW1 6373   2.710   5.773   1.678 -1.3627 -2.9897 -1.0251
 1641SOL    HW2 6374   2.705   5.653   1.770 -1.2579 -0.1047  3.0268
 1642SOL     OW 6375   6.367   6.162   5.041 -0.5189 -0.1046  0.1063
 1642SOL    HW1 6376   6.421   6.092   5.004  0.0165  0.8805 -1.0655
 1642SOL    HW2 6377   6.280   6.122   5.052 -0.3809 -0.7984 -1.1100
 1643SOL     OW 6378   3.767   4.883   4.253  0.3512  0.2388  0.6537
 1643SOL    HW1 6379   3.819   4.857   4.176  1.3622 -1.9710  1.9771
 1643SOL    HW2 6380   3.718   4.803   4.276  0.3011  0.7528  2.4774
 1644SOL     OW 6381   4.160   2.474   3.217 -0.0950 -0.1856  0.0338
 1644SOL    HW1 6382   4.107   2.484   3.138 -1.0273 -1.1463  0.5266
 1644SOL    HW2 6383   4.121   2.533   3.281  0.4980  0.3942 -0.1270
 1645SOL     OW 6384   5.467   4.476   2.705 -0.6107  0.1820  0.4153
 1645SOL    HW1 6385   5.543   4.532   2.723 -0.4443 -0.1927  0.9190
 1645SOL    HW2 6386   5.399   4.536   2.675 -0.4364  0.6586  0.9476
 1646SOL     OW 6387   6.462   7.067   6.263  0.5453  0.0108 -0.1755
 1646SOL    HW1 6388   6.557   7.074   6.263  0.5524  0.1272  0.7833
 1646SOL    HW2 6389   6.432   7.146   6.308  0.0627 -0.5759  0.5809
 1647SOL     OW 6390   4.264   6.072   2.528  0.6946 -0.4064 -0.3069
 1647SOL    HW1 6391   4.246   6.135   2.458  0.1205 -0.5608 -0.3010
 1647SOL    HW2 6392   4.277   6.125   2.606  0.8670 -0.2580 -0.4374
 1648SOL     OW 6393   4.037   6.424   6.021  0.8367  0.7974 -0.1847
 1648SOL    HW1 6394   4.004   6.450   6.107  2.0106 -1.8744  1.1921
 1648SOL    HW2 6395   4.121   6.468   6.012  1.6882 -0.4965  1.0376
 1649SOL     OW 6396   0.417   3.263   6.637  0.0430  0.2735  0.1897
 1649SOL    HW1 6397   0.439   3.278   6.545  2.0794 -1.0367  0.3825
 1649SOL    HW2 6398   0.341   3.205   6.635 -0.0747  0.4438 -0.6490
 1650SOL     OW 6399   3.802   0.342   3.998  0.1904  0.6558  0.1982
 1650SOL    HW1 6400   3.831   0.409   4.061 -0.3295 -0.1649  1.3475
 1650SOL    HW2 6401   3.882   0.299   3.969  0.3333  0.0036  1.5114
 1651SOL     OW 6402   6.827   4.650   2.115  0.0613 -0.6138  0.6659
 1651SOL    HW1 6403   6.767   4.657   2.189  0.0171 -0.8295  0.6512
 1651SOL    HW2 6404   6.771   4.633   2.039 -0.0531  1.2969  0.2783
 1652SOL     OW 6405   5.667   0.316   1.027  0.0620  0.0262  0.0024
 1652SOL    HW1 6406   5.716   0.377   1.082  2.1462  0.9582 -2.6784
 1652SOL    HW2 6407   5.708   0.322   0.941 -0.4381 -4.2519 -0.7848
 1653SOL     OW 6408   4.229   2.401   0.075 -0.0130  0.0465  0.2493
 1653SOL    HW1 6409   4.254   2.309   0.066 -1.5624 -0.7348  2.7849
 1653SOL    HW2 6410   4.169   2.417   0.002 -2.2441 -2.0156  1.4663
 1654SOL     OW 6411   1.744   6.122   5.786  0.0573 -0.0023  0.1472
 1654SOL    HW1 6412   1.682   6.152   5.853  1.5589  0.0294  1.5962
 1654SOL    HW2 6413   1.706   6.040   5.753 -0.6628 -0.0822  1.1323
 1655SOL     OW 6414   5.653   1.063   0.544  0.3319 -0.3122  0.1409
 1655SOL    HW1 6415   5.643   1.036   0.452  0.5531  0.3037 -0.0707
 1655SOL    HW2 6416   5.593   1.136   0.554  0.1071 -0.5519  0.5695
 1656SOL     OW 6417   3.433   6.793   1.003 -0.0839 -0.0160  1.1642
 1656SOL    HW1 6418   3.438   6.876   0.956 -0.8038  0.3334  1.6969
 1656SOL    HW2 6419   3.525   6.766   1.013  0.1376  0.5374  0.6987
 1657SOL     OW 6420   2.569   1.373   0.203  0.3924 -0.0932  0.2774
 1657SOL    HW1 6421   2.589   1.279   0.195  0.8445  0.1065 -1.5474
 1657SOL    HW2 6422   2.630   1.415   0.142  0.1824  1.3920  1.0595
 1658SOL     OW 6423   1.387   2.132   0.392 -0.3400  0.2212  0.5182
 1658SOL    HW1 6424   1.335   2.186   0.333 -0.9733 -1.3239 -0.4192
 1658SOL    HW2 6425   1.323   2.081   0.441  0.2417 -0.7926  0.2631
 1659SOL     OW 6426   6.278   7.020   3.726 -0.3310 -0.0439  0.5844
 1659SOL    HW1 6427   6.231   7.083   3.670  0.0740  0.0203  0.3094
 1659SOL    HW2 6428   6.216   7.000   3.797 -0.1653  1.3026  1.1365
 1660SOL     OW 6429   0.675   3.717   1.826 -0.1706 -0.1613 -0.4128
 1660SOL    HW1 6430   0.635   3.664   1.757  0.0398 -0.5530 -0.2378
 1660SOL    HW2 6431   0.756   3.671   1.848 -0.6500 -0.5194  0.6943
 1661SOL     OW 6432   6.004   5.496   1.391  0.5487  0.3247  0.5387
 1661SOL    HW1 6433   5.943   5.563   1.423  0.3921 -0.0390  1.0049
 1661SOL    HW2 6434   6.055   5.471   1.467 -2.3910 -3.3471  1.6212
 1662SOL     OW 6435   6.599   4.337   4.921 -0.1687 -0.0795 -0.1955
 1662SOL    HW1 6436   6.644   4.252   4.919 -1.2075 -0.6307 -2.2814
 1662SOL    HW2 6437   6.506   4.315   4.926 -0.6313  0.7963 -3.2058
 1663SOL     OW 6438   1.153   3.136   6.716 -0.1222 -0.0555 -0.2309
 1663SOL    HW1 6439   1.172   3.144   6.810  1.5320 -0.8235 -0.4696
 1663SOL    HW2 6440   1.059   3.121   6.712 -0.7991  2.9664  1.1270
 1664SOL     OW 6441   3.943   1.259   5.879 -0.7007 -0.1579 -0.0183
 1664SOL    HW1 6442   3.921   1.277   5.970 -0.9530  1.8120 -0.4137
 1664SOL    HW2 6443   3.967   1.345   5.843 -1.0461 -0.8072 -1.9232
 1665SOL     OW 6444   2.329   5.419   5.199 -0.2183  0.1213 -0.0778
 1665SOL    HW1 6445   2.280   5.346   5.161  0.9065 -0.5464 -0.2882
 1665SOL    HW2 6446   2.263   5.469   5.247 -1.3250 -0.0958 -1.2938
 1666SOL     OW 6447   5.327   5.975   1.985 -0.0282 -0.0360  0.4229
 1666SOL    HW1 6448   5.380   5.944   2.058  0.7002 -3.1733 -1.2483
 1666SOL    HW2 6449   5.241   5.936   1.999 -0.4818  0.9681  0.5564
 1667SOL     OW 6450   3.370   6.724   6.002 -0.1463  0.3167  0.3658
 1667SOL    HW1 6451   3.381   6.785   5.929  0.0400 -0.4302 -0.2466
 1667SOL    HW2 6452   3.438   6.750   6.064  0.1909  0.4866 -0.0649
 1668SOL     OW 6453   2.178   3.679   6.442  0.7679 -0.0136 -0.2845
 1668SOL    HW1 6454   2.120   3.613   6.405  1.9437 -0.9358 -0.5697
 1668SOL    HW2 6455   2.122   3.755   6.457 -0.7317 -1.2106  0.4692
 1669SOL     OW 6456   1.534   2.816   2.278 -0.2070  0.1957 -0.2070
 1669SOL    HW1 6457   1.472   2.794   2.208 -1.0341 -0.5110  0.7295
 1669SOL    HW2 6458   1.530   2.912   2.284 -0.1121  0.2718 -1.1214
 1670SOL     OW 6459   0.178   6.450   3.428  0.4964 -0.0699  0.9414
 1670SOL    HW1 6460   0.214   6.497   3.352  1.0269  1.1849  1.9231
 1670SOL    HW2 6461   0.189   6.358   3.407 -1.3286  0.1512 -1.4384
 1671SOL     OW 6462   2.300   3.391   6.553  0.3911 -0.0601  0.4066
 1671SOL    HW1 6463   2.235   3.322   6.566  0.6336 -0.0370  2.0773
 1671SOL    HW2 6464   2.329   3.382   6.463 -0.6278 -1.2170  0.1789
 1672SOL     OW 6465   0.857   6.949   5.262 -0.1870  0.5226  0.1077
 1672SOL    HW1 6466   0.780   6.947   5.205  0.0615  2.2742 -0.3248
 1672SOL    HW2 6467   0.914   7.015   5.224  1.8719 -1.1807  0.0363
 1673SOL     OW 6468   6.305   5.618   2.287 -0.0616 -0.6052  0.5638
 1673SOL    HW1 6469   6.366   5.614   2.361 -0.3223 -1.9409  0.7349
 1673SOL    HW2 6470   6.327   5.700   2.242  1.4974 -0.7992  0.9212
 1674SOL     OW 6471   4.466   1.710   1.171  0.3369  0.3275 -0.0028
 1674SOL    HW1 6472   4.496   1.783   1.226  0.2772  0.3799 -0.0400
 1674SOL    HW2 6473   4.542   1.689   1.117 -0.2098  1.6277 -1.3556
 1675SOL     OW 6474   6.809   3.693   6.505 -0.2314  0.1269  0.2984
 1675SOL    HW1 6475   6.745   3.763   6.498 -1.2731 -0.9571 -2.3134
 1675SOL    HW2 6476   6.894   3.737   6.499 -0.6659  1.4527  2.6230
 1676SOL     OW 6477   5.484   4.023   0.957  0.2266 -0.2937  0.2988
 1676SOL    HW1 6478   5.497   4.111   0.994 -0.4559  0.0043 -0.1348
 1676SOL    HW2 6479   5.516   3.963   1.024 -1.1494  0.2227  1.4829
 1677SOL     OW 6480   2.335   5.532   2.358  0.0733  0.2207 -0.3154
 1677SOL    HW1 6481   2.310   5.486   2.438 -0.7487  3.8750  1.7788
 1677SOL    HW2 6482   2.416   5.577   2.380 -0.2699  1.4711 -1.4517
 1678SOL     OW 6483   5.834   6.495   0.574 -0.2368 -0.3796 -0.4548
 1678SOL    HW1 6484   5.754   6.516   0.621 -0.1911 -0.6895 -0.2381
 1678SOL    HW2 6485   5.895   6.463   0.641  1.0576  2.4570 -0.1493
 1679SOL     OW 6486   5.114   5.205   4.471  0.0843 -0.1134  0.1236
 1679SOL    HW1 6487   5.100   5.120   4.430 -2.0403  0.7404 -1.0658
 1679SOL    HW2 6488   5.168   5.254   4.409  0.4724 -0.2645  0.3436
 1680SOL     OW 6489   1.693   5.169   4.160  0.2298  0.0377  0.2761
 1680SOL    HW1 6490   1.746   5.235   4.206 -0.1102 -0.2455  1.1055
 1680SOL    HW2 6491   1.653   5.118   4.231 -0.2524 -0.4654 -0.3508
 1681SOL     OW 6492   0.186   6.822   0.104 -0.3161 -0.0666 -0.4329
 1681SOL    HW1 6493   0.153   6.734   0.124 -3.3338  1.8413  4.7339
 1681SOL    HW2 6494   0.277   6.820   0.132 -0.3416 -1.5183 -0.3506
 1682SOL     OW 6495   4.740   0.470   2.580  0.1540 -0.0091 -0.4391
 1682SOL    HW1 6496   4.752   0.376   2.563  2.4315 -0.0541  0.9785
 1682SOL    HW2 6497   4.648   0.486   2.560 -0.1114 -2.3578 -1.5256
 1683SOL     OW 6498   0.028   4.304   4.020 -0.0539  0.5386  0.1239
 1683SOL    HW1 6499   0.038   4.399   4.012 -1.0201  0.8348  1.9553
 1683SOL    HW2 6500  -0.018   4.292   4.102 -0.3121 -1.5211 -0.2821
 1684SOL     OW 6501   6.208   0.007   5.206  0.3807 -0.4149 -0.8770
 1684SOL    HW1 6502   6.150  -0.041   5.148 -2.8827  0.0504  1.7099
 1684SOL    HW2 6503   6.202   0.098   5.176 -2.1806  0.0122  0.6581
 1685SOL     OW 6504   4.438   2.856   6.470 -0.0162  0.1145  0.0562
 1685SOL    HW1 6505   4.413   2.915   6.541  1.3677  2.1118 -1.0163
 1685SOL    HW2 6506   4.471   2.914   6.401  1.3622 -1.9217 -1.1044
 1686SOL     OW 6507   4.114   0.584   6.659  0.2759 -0.1787 -0.2445
 1686SOL    HW1 6508   4.098   0.544   6.745 -0.9367 -0.0139 -0.3774
 1686SOL    HW2 6509   4.183   0.648   6.675 -0.9212  0.8746  0.9347
 1687SOL     OW 6510   2.530   6.114   6.424  0.0324  0.7062 -0.0557
 1687SOL    HW1 6511   2.474   6.186   6.453 -0.1879  0.1985  0.8177
 1687SOL    HW2 6512   2.470   6.051   6.385  0.2324  1.0086 -0.8705
 1688SOL     OW 6513   3.117   5.146   6.212  0.2889 -0.0585  0.2109
 1688SOL    HW1 6514   3.081   5.137   6.300 -1.2164 -2.8444 -0.5845
 1688SOL    HW2 6515   3.042   5.164   6.156  0.9041 -0.4749 -0.7869
 1689SOL     OW 6516   6.165   3.237   0.922 -0.0970 -0.0986  0.4079
 1689SOL    HW1 6517   6.081   3.192   0.920 -1.3691  2.0996 -1.2212
 1689SOL    HW2 6518   6.181   3.261   0.830  1.8265  0.3706  0.8333
 1690SOL     OW 6519   0.094   3.511   5.586 -0.7498 -0.0211  0.4115
 1690SOL    HW1 6520   0.184   3.507   5.617 -0.1919 -1.7704 -1.2382
 1690SOL    HW2 6521   0.052   3.433   5.623 -0.7734 -0.7214 -1.0001
 1691SOL     OW 6522   0.016   3.742   0.163  0.0027  0.0894  0.2978
 1691SOL    HW1 6523   0.007   3.812   0.228 -0.6003 -0.6288  1.0039
 1691SOL    HW2 6524   0.109   3.723   0.161 -0.0069 -0.1040  1.2080
 1692SOL     OW 6525   6.673   3.703   2.320  0.0027  0.2873 -0.2358
 1692SOL    HW1 6526   6.750   3.651   2.345 -0.1881  1.2738  2.8437
 1692SOL    HW2 6527   6.618   3.641   2.271  1.6651 -1.1207 -0.4466
 1693SOL     OW 6528   6.489   4.700   6.032  0.7957  0.2606 -0.3877
 1693SOL    HW1 6529   6.426   4.735   6.095  2.0451  0.7866  0.6208
 1693SOL    HW2 6530   6.488   4.762   5.959  1.0504  0.9571  0.1911
 1694SOL     OW 6531   5.127   2.825   2.225 -0.1510 -0.4235 -0.0826
 1694SOL    HW1 6532   5.208   2.811   2.274 -0.9220 -0.0088  1.3544
 1694SOL    HW2 6533   5.076   2.745   2.239  0.1037 -0.8025 -1.2165
 1695SOL     OW 6534   1.286   4.481   2.723 -0.1274  0.2886  0.7865
 1695SOL    HW1 6535   1.303   4.564   2.678  0.2501  0.9090  2.0578
 1695SOL    HW2 6536   1.372   4.447   2.745 -0.3202  0.2728  1.5429
 1696SOL     OW 6537   4.328   7.062   2.957 -0.2367 -0.4702 -0.3121
 1696SOL    HW1 6538   4.370   7.086   2.874 -0.0068 -0.5824 -0.2292
 1696SOL    HW2 6539   4.343   7.137   3.014 -1.2211  0.0183 -0.6628
 1697SOL     OW 6540   1.748   5.726   2.675 -0.1853 -0.4058  0.2180
 1697SOL    HW1 6541   1.711   5.795   2.729  0.6871  0.5537 -0.3670
 1697SOL    HW2 6542   1.803   5.676   2.735 -1.4415 -1.1107  0.8207
 1698SOL     OW 6543   6.120   3.161   3.514  0.1091  0.6165 -0.4844
 1698SOL    HW1 6544   6.086   3.122   3.594  1.4433 -2.3698 -1.2421
 1698SOL    HW2 6545   6.212   3.179   3.534  0.7890 -1.2997 -1.6132
 1699SOL     OW 6546   3.392   4.176   2.192 -0.0676 -0.0162  0.1531
 1699SOL    HW1 6547   3.395   4.205   2.284  0.9676 -1.4689  0.6119
 1699SOL    HW2 6548   3.389   4.081   2.197  2.1696 -0.2329 -1.3269
 1700SOL     OW 6549   2.538   4.272   2.512  0.7858  0.9096 -0.5270
 1700SOL    HW1 6550   2.460   4.235   2.473  0.7201  1.2695 -0.7401
 1700SOL    HW2 6551   2.589   4.196   2.542 -0.1638  0.7020  0.6431
 1701SOL     OW 6552   1.523   5.481   6.212 -0.2135 -0.2950  0.4638
 1701SOL    HW1 6553   1.507   5.552   6.273  0.3946  0.7372 -0.5300
 1701SOL    HW2 6554   1.590   5.427   6.254  0.3262  0.5002  0.6581
 1702SOL     OW 6555   6.001   4.342   4.157  0.3516 -0.1512  0.3868
 1702SOL    HW1 6556   6.005   4.251   4.127 -0.4400  0.5884 -2.1957
 1702SOL    HW2 6557   6.049   4.391   4.090  1.4864  1.2838  2.1626
 1703SOL     OW 6558   6.668   1.329   0.079 -0.1363 -0.1247  0.5893
 1703SOL    HW1 6559   6.685   1.250   0.129 -0.6432  0.2517  1.3734
 1703SOL    HW2 6560   6.586   1.363   0.115 -1.5656 -0.8544 -1.7542
 1704SOL     OW 6561   6.954   1.424   4.277  0.5384  0.4395 -0.2440
 1704SOL    HW1 6562   7.023   1.379   4.326 -0.9710 -0.8200  0.8296
 1704SOL    HW2 6563   6.934   1.502   4.328 -1.0544 -0.8855  1.2916
 1705SOL     OW 6564   2.211   2.483   2.168 -0.3872 -0.3047  0.2653
 1705SOL    HW1 6565   2.200   2.490   2.073  0.4719  1.0313  0.2346
 1705SOL    HW2 6566   2.300   2.450   2.179 -0.1451  0.4670  0.6196
 1706SOL     OW 6567   6.095   0.575   1.623  0.6289 -0.4194 -0.2901
 1706SOL    HW1 6568   6.151   0.652   1.626 -0.8006  0.6600 -0.7865
 1706SOL    HW2 6569   6.067   0.568   1.532 -1.4498  0.1339  0.2453
 1707SOL     OW 6570   1.779   1.959   6.326 -0.1921 -0.2767 -0.1219
 1707SOL    HW1 6571   1.705   1.943   6.385 -1.4635  0.6325 -1.3882
 1707SOL    HW2 6572   1.853   1.977   6.384 -1.1331 -0.4804  1.1940
 1708SOL     OW 6573   1.375   6.973   1.364 -0.2941 -0.0807  0.2237
 1708SOL    HW1 6574   1.461   6.934   1.346  0.8531  2.0845  0.6260
 1708SOL    HW2 6575   1.319   6.899   1.387  1.9176 -1.4280  1.5975
 1709SOL     OW 6576   0.094   2.497   3.347 -0.3761  0.1070  0.5811
 1709SOL    HW1 6577   0.077   2.582   3.306 -0.8622 -0.6884 -0.9407
 1709SOL    HW2 6578   0.091   2.514   3.441 -0.1795  1.8229  0.2961
 1710SOL     OW 6579   2.566   0.057   3.720  0.4315  0.0284  0.0178
 1710SOL    HW1 6580   2.652   0.017   3.732  1.4364  1.9371 -0.3171
 1710SOL    HW2 6581   2.558   0.120   3.792 -0.5473  0.1011 -0.1400
 1711SOL     OW 6582   4.910   2.705   3.175  0.6224 -0.3675  0.2808
 1711SOL    HW1 6583   4.967   2.745   3.109 -0.5696  1.8326  0.5141
 1711SOL    HW2 6584   4.873   2.778   3.224  0.0290 -1.8625  2.2241
 1712SOL     OW 6585   2.571   5.126   6.164  0.5407 -0.2475  0.1006
 1712SOL    HW1 6586   2.622   5.082   6.232 -0.6360 -0.5428  0.8179
 1712SOL    HW2 6587   2.636   5.155   6.100  1.5579 -0.9992  0.7669
 1713SOL     OW 6588   3.405   3.779   2.480  0.3122 -0.3570  0.3011
 1713SOL    HW1 6589   3.351   3.845   2.524 -0.8501 -2.0836  1.5799
 1713SOL    HW2 6590   3.490   3.822   2.468 -0.2925  1.2431  1.4062
 1714SOL     OW 6591   4.506   6.566   2.774  0.1920 -0.1294 -0.1559
 1714SOL    HW1 6592   4.419   6.562   2.733 -0.1620 -0.4766  0.6037
 1714SOL    HW2 6593   4.519   6.659   2.792  0.1802 -0.0196 -0.6822
 1715SOL     OW 6594   4.025   4.393   4.713 -0.0115  0.2190  0.3498
 1715SOL    HW1 6595   4.096   4.383   4.775 -0.8827 -0.7961  1.2246
 1715SOL    HW2 6596   3.993   4.304   4.699 -0.7669  0.5975 -0.4335
 1716SOL     OW 6597   1.757   1.281   6.022 -0.2943 -0.6394  0.4759
 1716SOL    HW1 6598   1.779   1.203   5.970  0.0831 -0.7717  0.8302
 1716SOL    HW2 6599   1.686   1.322   5.973 -0.8136 -1.4541  0.5213
 1717SOL     OW 6600   1.816   6.090   1.711  0.3327  0.7445 -0.4101
 1717SOL    HW1 6601   1.825   6.009   1.661  0.5162  1.7591 -2.1209
 1717SOL    HW2 6602   1.736   6.079   1.761  0.2274 -0.3976 -0.7984
 1718SOL     OW 6603   6.674   2.904   5.603  0.2390  0.1743  0.1333
 1718SOL    HW1 6604   6.619   2.837   5.563 -0.4159 -1.3485  3.2895
 1718SOL    HW2 6605   6.761   2.888   5.567 -0.2051 -1.3970 -0.3012
 1719SOL     OW 6606   5.892   2.477   0.777  0.1549  0.4893 -0.4363
 1719SOL    HW1 6607   5.942   2.410   0.731  1.0466  0.8651 -0.0233
 1719SOL    HW2 6608   5.922   2.472   0.868 -1.3817 -0.0520  0.0726
 1720SOL     OW 6609   5.898   6.379   3.968 -0.0661  0.1739  0.2131
 1720SOL    HW1 6610   5.985   6.416   3.982 -0.4616  0.6345  1.5107
 1720SOL    HW2 6611   5.837   6.450   3.987 -0.7632 -0.4263  0.2903
 1721SOL     OW 6612   0.441   2.733   1.318 -0.4173 -0.0150  0.6838
 1721SOL    HW1 6613   0.517   2.750   1.374  0.9587 -0.7031 -0.8863
 1721SOL    HW2 6614   0.384   2.678   1.371  0.2462  0.3748  1.8421
 1722SOL     OW 6615   1.234   7.063   3.500 -0.1657  0.1704  0.4013
 1722SOL    HW1 6616   1.171   7.072   3.428  2.6268 -1.0172 -2.4795
 1722SOL    HW2 6617   1.288   7.141   3.494  0.1595  0.0061  1.1418
 1723SOL     OW 6618   4.804   5.008   0.133 -0.4052  0.2637  0.5320
 1723SOL    HW1 6619   4.717   5.044   0.149 -0.3326  0.0356  1.5333
 1723SOL    HW2 6620   4.794   4.913   0.145  0.0369  0.2668  0.9808
 1724SOL     OW 6621   6.635   1.561   2.479  0.2502  0.3364 -0.2352
 1724SOL    HW1 6622   6.673   1.505   2.411 -0.1333 -1.1725  0.7389
 1724SOL    HW2 6623   6.689   1.546   2.556  0.0860  1.2629  0.0663
 1725SOL     OW 6624   3.596   2.491   2.634  0.4018 -0.3604  0.6349
 1725SOL    HW1 6625   3.553   2.450   2.560 -0.2947  0.6546  0.4549
 1725SOL    HW2 6626   3.526   2.504   2.698  0.4424  1.1408  0.4085
 1726SOL     OW 6627   6.789   6.667   3.093 -0.0080  0.0190 -0.5448
 1726SOL    HW1 6628   6.872   6.621   3.079 -0.5011 -0.4893 -1.8940
 1726SOL    HW2 6629   6.803   6.754   3.056  0.1155  0.1371 -0.2242
 1727SOL     OW 6630   6.877   2.079   1.412  0.1033  0.4810  0.0956
 1727SOL    HW1 6631   6.807   2.137   1.384  0.0026 -0.1815 -1.0918
 1727SOL    HW2 6632   6.890   2.019   1.338  1.3468  0.0652  0.6185
 1728SOL     OW 6633   3.702   3.275   6.380  0.1691 -0.5773  0.4509
 1728SOL    HW1 6634   3.736   3.343   6.323 -0.1551  0.6724  1.6965
 1728SOL    HW2 6635   3.742   3.292   6.465 -0.7887 -1.2538  1.0638
 1729SOL     OW 6636   2.697   7.111   0.521  0.0096 -0.5458  0.1138
 1729SOL    HW1 6637   2.739   7.102   0.435  2.8157  0.3915  1.2780
 1729SOL    HW2 6638   2.651   7.194   0.516  1.7049  0.4498  0.0260
 1730SOL     OW 6639   5.656   5.202   3.984  0.5603  0.0621 -0.4587
 1730SOL    HW1 6640   5.679   5.182   3.893  0.2713  1.0342 -0.7635
 1730SOL    HW2 6641   5.738   5.229   4.024  0.4064  1.3772 -0.9452
 1731SOL     OW 6642   6.045   4.322   1.404  0.5859 -0.7237 -0.3200
 1731SOL    HW1 6643   6.118   4.324   1.342 -0.0871 -0.3291 -1.1199
 1731SOL    HW2 6644   6.005   4.409   1.398 -1.6868 -1.7798 -2.0394
 1732SOL     OW 6645   4.257   0.352   3.598  0.0500 -0.2303  0.0818
 1732SOL    HW1 6646   4.319   0.295   3.553  0.6422  0.2530  0.2629
 1732SOL    HW2 6647   4.281   0.344   3.691 -1.6740 -1.8509  0.4425
 1733SOL     OW 6648   1.205   3.354   5.694 -0.0714 -0.2305  0.3823
 1733SOL    HW1 6649   1.149   3.304   5.753  0.8031 -1.5671  0.1284
 1733SOL    HW2 6650   1.245   3.421   5.750 -0.2023 -0.6979  1.0405
 1734SOL     OW 6651   1.146   3.838   6.471  0.4355  0.1377 -0.0551
 1734SOL    HW1 6652   1.171   3.806   6.558 -3.4325 -2.9632  0.2189
 1734SOL    HW2 6653   1.177   3.771   6.411 -1.1635 -0.3140 -0.4200
 1735SOL     OW 6654   1.124   2.027   0.461  0.1494 -0.2272  0.0925
 1735SOL    HW1 6655   1.060   1.957   0.453 -0.3470  0.3374 -1.1606
 1735SOL    HW2 6656   1.082   2.091   0.518  0.6486 -0.9718  1.3270
 1736SOL     OW 6657   1.846   0.355   4.752  0.3697  0.2058 -0.3803
 1736SOL    HW1 6658   1.907   0.410   4.703  2.1773 -1.2974  0.0454
 1736SOL    HW2 6659   1.800   0.304   4.686  0.2664  0.6562 -0.6593
 1737SOL     OW 6660   1.631   0.316   0.096  0.0367 -0.4644 -0.2439
 1737SOL    HW1 6661   1.556   0.278   0.049 -0.2776 -2.1310  1.4779
 1737SOL    HW2 6662   1.591   0.376   0.159  0.2430 -0.4521 -0.1242
 1738SOL     OW 6663   3.715   6.530   5.350 -0.4338  0.0226  0.1070
 1738SOL    HW1 6664   3.774   6.591   5.396 -0.0560  0.1985 -0.6026
 1738SOL    HW2 6665   3.748   6.443   5.374  1.7200  0.0917 -2.2169
 1739SOL     OW 6666   6.121   5.616   6.209  0.7049 -0.4336  0.2197
 1739SOL    HW1 6667   6.050   5.557   6.233  0.6665 -2.0081 -3.1222
 1739SOL    HW2 6668   6.097   5.700   6.247 -1.8725 -1.4254  0.9578
 1740SOL     OW 6669   1.512   2.040   1.204  0.0066  0.3845  0.3132
 1740SOL    HW1 6670   1.599   2.072   1.183 -0.5114  1.4864 -0.2038
 1740SOL    HW2 6671   1.513   1.948   1.178  0.9369  0.4459  0.1104
 1741SOL     OW 6672   0.944   4.684   0.124  0.0247  0.1663 -0.0635
 1741SOL    HW1 6673   0.955   4.595   0.092  1.6507  0.2180  0.2476
 1741SOL    HW2 6674   0.968   4.740   0.050  0.0809  0.3264  0.0727
 1742SOL     OW 6675   4.074   4.966   6.298  0.3126  0.2776 -0.1550
 1742SOL    HW1 6676   4.106   4.882   6.266 -0.2381 -0.1539  0.4025
 1742SOL    HW2 6677   4.152   5.019   6.312  1.0618 -1.5197  3.4315
 1743SOL     OW 6678   3.012   0.167   5.596 -0.7539 -0.2120 -0.2861
 1743SOL    HW1 6679   3.057   0.096   5.642  0.2203 -0.3380 -1.4027
 1743SOL    HW2 6680   3.039   0.246   5.643  0.8465 -0.2631 -1.0412
 1744SOL     OW 6681   3.719   6.387   0.837  0.6540  0.1107 -0.0546
 1744SOL    HW1 6682   3.808   6.413   0.860  0.2051  0.1070  1.7831
 1744SOL    HW2 6683   3.726   6.294   0.816  1.5315  0.6631 -2.7150
 1745SOL     OW 6684   5.184   7.016   3.549 -0.7433 -0.8317  0.0982
 1745SOL    HW1 6685   5.176   7.023   3.454 -2.1175  1.0898  0.3015
 1745SOL    HW2 6686   5.278   7.004   3.564 -0.3118  0.2410 -1.4485
 1746SOL     OW 6687   3.760   2.622   0.891  1.1504 -0.1153 -0.0244
 1746SOL    HW1 6688   3.666   2.609   0.904  0.6970 -0.7470 -3.0657
 1746SOL    HW2 6689   3.781   2.700   0.941 -0.9477 -0.0924  0.9220
 1747SOL     OW 6690   3.895   6.875   0.124  0.1810 -0.0106 -0.1588
 1747SOL    HW1 6691   3.981   6.865   0.165 -0.6619 -1.4712  1.3981
 1747SOL    HW2 6692   3.888   6.802   0.063  0.2674  0.4765 -0.7695
 1748SOL     OW 6693   6.698   0.157   6.039  0.6195 -0.0218  0.4224
 1748SOL    HW1 6694   6.644   0.107   5.978  1.5708 -0.4461 -0.0916
 1748SOL    HW2 6695   6.768   0.193   5.985  0.7011  0.7663  1.0306
 1749SOL     OW 6696   2.802   5.207   4.668 -0.8250  0.2184 -0.2445
 1749SOL    HW1 6697   2.801   5.114   4.687 -0.5226  0.6643  2.2906
 1749SOL    HW2 6698   2.882   5.220   4.616 -0.0583 -0.7287  0.6537
 1750SOL     OW 6699   1.354   5.783   2.660 -0.0565 -0.0604 -0.0412
 1750SOL    HW1 6700   1.367   5.843   2.733  1.2243  0.9493 -1.0493
 1750SOL    HW2 6701   1.270   5.809   2.622  0.9766  1.9418 -1.1491
 1751SOL     OW 6702   0.117   0.205   2.854  0.5224  0.7311 -0.0165
 1751SOL    HW1 6703   0.085   0.258   2.782  1.9297  1.1809 -0.3380
 1751SOL    HW2 6704   0.193   0.159   2.819 -1.3904 -2.6565 -0.2034
 1752SOL     OW 6705   3.684   3.707   6.467 -0.1594  0.6389 -0.1183
 1752SOL    HW1 6706   3.618   3.775   6.458 -1.3523  0.1923  3.5565
 1752SOL    HW2 6707   3.634   3.627   6.483  1.2220 -0.0879  0.8139
 1753SOL     OW 6708   4.225   4.285   1.574 -0.0191  0.0696  0.1488
 1753SOL    HW1 6709   4.217   4.226   1.499  1.5818 -1.2252  0.9187
 1753SOL    HW2 6710   4.305   4.336   1.556  2.1238 -2.2757  2.1564
 1754SOL     OW 6711   2.248   5.933   2.350  0.4088  0.3019 -0.5069
 1754SOL    HW1 6712   2.343   5.940   2.337  0.7293 -1.3343  0.5646
 1754SOL    HW2 6713   2.221   5.861   2.293 -0.0555  0.3075 -0.3025
 1755SOL     OW 6714   0.821   6.697   0.882  0.8356  0.1808  0.3986
 1755SOL    HW1 6715   0.879   6.658   0.948  0.9949 -1.0576 -0.4277
 1755SOL    HW2 6716   0.854   6.786   0.871  1.1931  0.2071  1.5268
 1756SOL     OW 6717   6.743   4.876   3.078 -0.1552  0.3702 -0.1982
 1756SOL    HW1 6718   6.824   4.904   3.035 -0.3668 -0.1658 -0.9622
 1756SOL    HW2 6719   6.767   4.795   3.124 -0.0770  0.6201  0.2063
 1757SOL     OW 6720   5.887   5.235   3.462  0.0218  0.5177 -0.5600
 1757SOL    HW1 6721   5.978   5.254   3.487 -0.5345  1.3619  0.9393
 1757SOL    HW2 6722   5.836   5.305   3.501 -1.3884 -0.4093 -0.6607
 1758SOL     OW 6723   1.506   5.147   3.079 -0.7388 -0.3052 -0.4479
 1758SOL    HW1 6724   1.444   5.118   3.146 -0.2921 -2.0247 -0.7328
 1758SOL    HW2 6725   1.555   5.217   3.122 -0.6890 -1.1358  0.9305
 1759SOL     OW 6726   5.961   5.118   2.897  0.9427 -0.3036 -0.5167
 1759SOL    HW1 6727   6.022   5.134   2.969  0.6162 -1.3182  0.0152
 1759SOL    HW2 6728   5.999   5.043   2.851  0.0544 -1.0301 -0.1046
 1760SOL     OW 6729   5.096   2.623   6.973  0.6532 -0.3430 -0.3114
 1760SOL    HW1 6730   5.001   2.620   6.967  0.7065 -0.4262 -1.3808
 1760SOL    HW2 6731   5.114   2.652   7.062 -0.3541 -1.2589  0.2195
 1761SOL     OW 6732   4.743   2.753   5.230  0.4664  0.2617  0.0671
 1761SOL    HW1 6733   4.697   2.835   5.209  1.0230  0.5873  0.1134
 1761SOL    HW2 6734   4.835   2.773   5.217  0.6707 -0.1303  0.8313
 1762SOL     OW 6735   4.524   4.063   3.062  0.3997  0.9880 -0.0840
 1762SOL    HW1 6736   4.488   4.043   3.149  1.0888  2.9763  0.7324
 1762SOL    HW2 6737   4.468   4.133   3.029  1.9597  2.4198  0.1515
 1763SOL     OW 6738   2.631   4.111   6.007  0.2826 -0.3332 -0.0641
 1763SOL    HW1 6739   2.628   4.092   5.914  2.9514 -1.1427 -0.0587
 1763SOL    HW2 6740   2.724   4.116   6.028 -0.2354 -0.0154  2.5422
 1764SOL     OW 6741   4.650   6.122   5.407  0.7732 -0.2215 -0.0380
 1764SOL    HW1 6742   4.621   6.059   5.341  1.1793  1.2416 -1.6904
 1764SOL    HW2 6743   4.745   6.110   5.411  1.1320  1.5320 -1.8179
 1765SOL     OW 6744   4.148   6.565   0.268  0.2965 -0.6185  0.2788
 1765SOL    HW1 6745   4.185   6.653   0.264 -1.5052  0.1617 -2.9542
 1765SOL    HW2 6746   4.091   6.566   0.345  1.0916  0.6679  0.8766
 1766SOL     OW 6747   1.745   1.575   3.870 -0.0700  0.0243 -0.3810
 1766SOL    HW1 6748   1.734   1.592   3.776  1.8865  0.2899 -0.6044
 1766SOL    HW2 6749   1.792   1.651   3.903  1.0213 -0.9367  0.3820
 1767SOL     OW 6750   6.681   0.758   1.292 -0.0034  0.4147 -0.1234
 1767SOL    HW1 6751   6.655   0.670   1.321  1.0992  0.3277  0.6428
 1767SOL    HW2 6752   6.629   0.817   1.346  0.3089  0.2395  0.3681
 1768SOL     OW 6753   6.941   2.271   2.953 -0.2737  0.5847  0.7275
 1768SOL    HW1 6754   6.849   2.289   2.932 -0.6102 -1.2716  0.4463
 1768SOL    HW2 6755   6.952   2.304   3.043 -1.3163  0.4778  0.9082
 1769SOL     OW 6756   4.157   4.116   5.014 -0.0510  0.3061 -0.7252
 1769SOL    HW1 6757   4.130   4.204   5.042 -0.7433 -0.4985  1.2527
 1769SOL    HW2 6758   4.252   4.115   5.028 -0.4576 -0.4301  3.0123
 1770SOL     OW 6759   5.408   4.281   2.500  0.3206  0.0849 -0.3227
 1770SOL    HW1 6760   5.427   4.354   2.558 -0.9638  0.4080 -0.2723
 1770SOL    HW2 6761   5.493   4.254   2.466  0.7259  2.3686 -1.2588
 1771SOL     OW 6762   0.487   0.780   0.502 -0.4782 -0.5486 -0.0916
 1771SOL    HW1 6763   0.487   0.846   0.432 -1.0258 -0.1268  0.2975
 1771SOL    HW2 6764   0.531   0.823   0.575 -0.7423 -0.6452  0.1265
 1772SOL     OW 6765   1.275   5.335   4.017 -0.0112  0.3861 -0.5319
 1772SOL    HW1 6766   1.302   5.324   4.108 -2.9070 -0.1382  0.3666
 1772SOL    HW2 6767   1.236   5.251   3.993  2.4491 -0.1959 -3.0243
 1773SOL     OW 6768   3.001   1.760   1.632 -0.3408  0.4307 -0.0008
 1773SOL    HW1 6769   2.938   1.824   1.599 -0.2160  0.0148 -1.0936
 1773SOL    HW2 6770   2.985   1.681   1.580  0.8745  0.2241 -0.1020
 1774SOL     OW 6771   5.062   3.257   0.937 -0.6425 -0.4463  0.2814
 1774SOL    HW1 6772   5.047   3.346   0.906  2.9438  0.1074 -0.3752
 1774SOL    HW2 6773   5.086   3.208   0.858  1.3784 -0.9031  1.1208
 1775SOL     OW 6774   2.177   0.362   4.424 -0.4632  0.0232 -0.3102
 1775SOL    HW1 6775   2.270   0.384   4.433 -0.5238 -0.0928  0.6192
 1775SOL    HW2 6776   2.169   0.274   4.460 -0.7615 -0.3734 -1.3111
 1776SOL     OW 6777   4.108   4.034   2.990  0.5387  0.6904  0.0984
 1776SOL    HW1 6778   4.055   4.101   2.947  0.9502  0.4142 -0.8665
 1776SOL    HW2 6779   4.144   4.079   3.067  0.9970  1.6606 -0.6557
 1777SOL     OW 6780   2.549   1.493   2.073 -0.2218  0.5026 -0.5857
 1777SOL    HW1 6781   2.544   1.552   2.149  0.7097  1.2629 -1.0927
 1777SOL    HW2 6782   2.467   1.509   2.026 -0.7585  0.1060  0.1843
 1778SOL     OW 6783   5.320   1.339   1.497 -0.6132  0.1732  0.3681
 1778SOL    HW1 6784   5.328   1.331   1.402  3.3286 -0.8996  0.6038
 1778SOL    HW2 6785   5.324   1.433   1.514  0.0363  0.3163 -0.5038
 1779SOL     OW 6786   4.874   3.340   5.024 -0.1948  0.1589 -0.4810
 1779SOL    HW1 6787   4.806   3.359   5.088 -1.6732  0.7068 -2.1232
 1779SOL    HW2 6788   4.945   3.401   5.045 -0.3515 -0.1404  1.0094
 1780SOL     OW 6789   1.716   6.596   2.177 -0.1989  0.0089  0.0646
 1780SOL    HW1 6790   1.638   6.625   2.131  0.9813  1.1544 -1.3140
 1780SOL    HW2 6791   1.708   6.500   2.180 -2.6655  0.1662  1.9431
 1781SOL     OW 6792   1.778   0.932   1.951  0.6118 -0.0892 -0.3329
 1781SOL    HW1 6793   1.713   0.875   1.992  0.7049  1.5317  2.3018
 1781SOL    HW2 6794   1.728   1.009   1.922  1.1191  0.6231  0.6079
 1782SOL     OW 6795   5.936   2.496   5.873 -0.2887 -0.1131  1.1592
 1782SOL    HW1 6796   5.881   2.447   5.934 -0.4062  0.3058  1.3927
 1782SOL    HW2 6797   5.987   2.556   5.928 -0.0886 -0.0250  0.8846
 1783SOL     OW 6798   0.641   6.483   5.308  0.1862  0.1293 -0.0997
 1783SOL    HW1 6799   0.729   6.469   5.343  0.5186  3.5784  0.7372
 1783SOL    HW2 6800   0.651   6.472   5.213  1.6627  1.0500 -0.0725
 1784SOL     OW 6801   1.400   3.672   1.035  0.1073  0.3108  0.0937
 1784SOL    HW1 6802   1.305   3.679   1.041  0.0284 -1.4823  2.3915
 1784SOL    HW2 6803   1.415   3.608   0.965 -0.4060  0.3917 -0.0909
 1785SOL     OW 6804   5.614   0.290   3.416 -0.1500 -0.8601  0.4635
 1785SOL    HW1 6805   5.554   0.339   3.359 -0.0082 -1.4020 -0.1646
 1785SOL    HW2 6806   5.615   0.202   3.379  1.1160 -0.8359  0.4002
 1786SOL     OW 6807   0.087   1.721   0.846  0.2200 -0.0790 -0.1562
 1786SOL    HW1 6808   0.129   1.797   0.885  1.3895 -0.6474 -0.2746
 1786SOL    HW2 6809   0.004   1.755   0.812  0.3264  0.9494  0.5594
 1787SOL     OW 6810   7.075   4.125   1.995  0.1209 -0.0885  0.6480
 1787SOL    HW1 6811   6.989   4.130   2.037  0.0015 -1.1397  0.5518
 1787SOL    HW2 6812   7.056   4.103   1.904  0.4513  0.8291  0.3400
 1788SOL     OW 6813   4.986   1.368   5.198 -0.2606 -0.0894 -0.5072
 1788SOL    HW1 6814   4.950   1.376   5.110 -0.2410 -2.8192 -0.8454
 1788SOL    HW2 6815   4.961   1.280   5.226  2.3827 -0.4687  0.9826
 1789SOL     OW 6816   4.385   4.820   0.090  0.1773 -0.1896  0.0684
 1789SOL    HW1 6817   4.381   4.796  -0.003 -0.2265 -0.3042  0.1092
 1789SOL    HW2 6818   4.372   4.914   0.091 -1.5132 -0.3894  0.0999
 1790SOL     OW 6819   7.108   5.597   0.619 -0.1340  0.2586 -0.0496
 1790SOL    HW1 6820   7.111   5.674   0.563  0.5945 -0.8351 -1.5792
 1790SOL    HW2 6821   7.018   5.596   0.652 -0.3685  1.3507 -0.5885
 1791SOL     OW 6822   0.994   1.429   5.327 -0.4983 -0.0229 -0.1650
 1791SOL    HW1 6823   1.069   1.482   5.351  0.4359 -1.8549  1.2501
 1791SOL    HW2 6824   0.931   1.491   5.290  0.5884  1.9849  1.1845
 1792SOL     OW 6825   1.430   0.998   1.118  0.3803 -0.4280  0.2033
 1792SOL    HW1 6826   1.402   1.074   1.168 -1.8480 -0.6524 -0.6106
 1792SOL    HW2 6827   1.350   0.962   1.081  1.5740 -2.1789 -0.8558
 1793SOL     OW 6828   6.958   7.116   6.807 -0.5158 -0.1278  0.2892
 1793SOL    HW1 6829   6.962   7.068   6.724 -2.1498 -0.1331  0.1828
 1793SOL    HW2 6830   6.870   7.098   6.841  0.2983 -0.5823  2.3130
 1794SOL     OW 6831   5.150   1.468   2.958 -0.0486  0.6154  0.0702
 1794SOL    HW1 6832   5.065   1.428   2.977 -0.2959  0.3721 -1.4188
 1794SOL    HW2 6833   5.169   1.522   3.034 -1.0323 -0.1681  0.8943
 1795SOL     OW 6834   1.475   4.842   1.582  0.3331 -0.1588  0.0747
 1795SOL    HW1 6835   1.465   4.925   1.628  0.1703  0.4677 -1.0479
 1795SOL    HW2 6836   1.563   4.812   1.605  0.7777  0.8225 -0.2839
 1796SOL     OW 6837   4.580   0.313   4.850 -0.1942  0.5587  0.0244
 1796SOL    HW1 6838   4.493   0.354   4.848 -1.4725 -1.9577  0.0216
 1796SOL    HW2 6839   4.602   0.301   4.758 -0.2886  0.3538  0.0274
 1797SOL     OW 6840   7.076   6.680   3.570 -0.2549  0.2162  0.3119
 1797SOL    HW1 6841   7.119   6.745   3.625  0.7791 -0.4375  0.2960
 1797SOL    HW2 6842   6.984   6.709   3.565  0.4721  2.5763 -0.9916
 1798SOL     OW 6843   4.744   5.177   0.969 -0.5701 -0.0222  0.6554
 1798SOL    HW1 6844   4.771   5.264   0.938  0.0740 -1.1264 -2.2357
 1798SOL    HW2 6845   4.808   5.155   1.036  1.1386  0.5506 -0.7095
 1799SOL     OW 6846   2.900   3.335   2.160 -0.0972 -0.1751  0.4474
 1799SOL    HW1 6847   2.886   3.425   2.189  0.9188  0.4612 -0.8878
 1799SOL    HW2 6848   2.969   3.342   2.094 -1.1270 -1.7178 -0.8776
 1800SOL     OW 6849   4.584   1.744   1.911 -0.7272  0.2407 -0.0137
 1800SOL    HW1 6850   4.586   1.818   1.850  0.2338  0.1383 -0.1276
 1800SOL    HW2 6851   4.516   1.686   1.878 -1.6891  1.1940  0.2275
 1801SOL     OW 6852   1.202   4.152   0.750  0.3720 -0.1439 -0.1956
 1801SOL    HW1 6853   1.296   4.154   0.771  0.2345  0.3934  0.4145
 1801SOL    HW2 6854   1.160   4.143   0.835 -0.1289 -0.5382 -0.4845
 1802SOL     OW 6855   0.477   0.895   2.656  0.5105 -0.1911 -0.3140
 1802SOL    HW1 6856   0.490   0.805   2.625  0.9833 -0.9185  1.8286
 1802SOL    HW2 6857   0.393   0.922   2.619  0.7712 -1.1895 -1.6823
 1803SOL     OW 6858   3.466   0.077   1.853  0.2855 -0.3160 -0.0646
 1803SOL    HW1 6859   3.384   0.125   1.860 -0.6976 -1.1825 -3.3339
 1803SOL    HW2 6860   3.445  -0.012   1.882  0.6761 -0.0580  1.0526
 1804SOL     OW 6861   5.263   0.287   5.669  0.0543 -0.1511 -0.2881
 1804SOL    HW1 6862   5.225   0.328   5.592  2.9315  0.4092 -1.5567
 1804SOL    HW2 6863   5.238   0.195   5.662  0.3399 -0.1389 -2.0136
 1805SOL     OW 6864   6.801   4.990   0.043 -0.6326  0.2133 -0.3615
 1805SOL    HW1 6865   6.747   4.913   0.060  0.2008 -0.3657 -0.2744
 1805SOL    HW2 6866   6.798   5.041   0.124 -0.6553 -0.0639 -0.1889
 1806SOL     OW 6867   4.359   4.596   0.238 -0.8000  0.3287 -0.0319
 1806SOL    HW1 6868   4.369   4.676   0.186  2.0172  0.9864  1.3237
 1806SOL    HW2 6869   4.319   4.626   0.320 -1.1114  0.0641 -0.0848
 1807SOL     OW 6870   5.762   1.547   1.336 -0.3117 -0.3053  0.2071
 1807SOL    HW1 6871   5.794   1.636   1.322 -0.1609 -0.4472 -0.3975
 1807SOL    HW2 6872   5.690   1.557   1.398  2.5393 -0.2580  3.8294
 1808SOL     OW 6873   0.789   5.509   2.678  0.2646  0.3573  0.1547
 1808SOL    HW1 6874   0.815   5.596   2.649  1.4495  0.1214  0.4568
 1808SOL    HW2 6875   0.741   5.472   2.604  1.7081  0.4316 -0.8675
 1809SOL     OW 6876   1.446   0.288   6.860  0.2081 -0.0265  0.5255
 1809SOL    HW1 6877   1.415   0.342   6.932  1.3846  1.2343  0.1408
 1809SOL    HW2 6878   1.391   0.210   6.862 -0.9504  0.7903  1.6619
 1810SOL     OW 6879   0.163   4.321   6.730 -0.3753  0.2655  0.0554
 1810SOL    HW1 6880   0.170   4.225   6.731 -1.1758  0.1553  2.5326
 1810SOL    HW2 6881   0.240   4.351   6.682  1.4525 -1.5494  1.6768
 1811SOL     OW 6882   6.746   6.157   6.837 -0.3510 -0.0838  0.0283
 1811SOL    HW1 6883   6.721   6.141   6.928  0.6363 -1.1448  0.1417
 1811SOL    HW2 6884   6.813   6.091   6.819  1.2000  1.5951 -0.7394
 1812SOL     OW 6885   3.241   1.922   2.324 -1.0008 -0.0985  0.0045
 1812SOL    HW1 6886   3.183   1.940   2.398 -0.8351  2.0200 -0.3011
 1812SOL    HW2 6887   3.185   1.936   2.247 -0.4726  0.4924 -0.2770
 1813SOL     OW 6888   6.564   2.050   2.482 -0.2900 -0.2704  0.5462
 1813SOL    HW1 6889   6.609   2.119   2.531  2.1922 -0.7425 -0.9183
 1813SOL    HW2 6890   6.610   1.969   2.505 -0.8066 -0.8938 -0.5342
 1814SOL     OW 6891   5.649   0.731   5.068  0.1232 -0.3279  0.0996
 1814SOL    HW1 6892   5.731   0.765   5.032 -0.3193 -0.9917 -1.6484
 1814SOL    HW2 6893   5.658   0.636   5.064 -0.2488 -0.4226  1.1085
 1815SOL     OW 6894   1.221   6.498   1.508 -0.9137  0.3195 -0.0371
 1815SOL    HW1 6895   1.206   6.432   1.440  1.1199 -0.3234  0.0779
 1815SOL    HW2 6896   1.270   6.568   1.463  0.3701 -0.0698  0.7029
 1816SOL     OW 6897   2.379   5.062   6.764 -0.1422  0.5442 -0.0447
 1816SOL    HW1 6898   2.297   5.041   6.810  0.4196 -0.6916  0.4349
 1816SOL    HW2 6899   2.413   4.978   6.735  0.8912  1.0507 -0.3645
 1817SOL     OW 6900   3.928   3.639   1.532  0.4107 -0.1965 -0.0600
 1817SOL    HW1 6901   3.875   3.599   1.463  0.1955 -0.1180  0.0578
 1817SOL    HW2 6902   3.865   3.687   1.586  0.3451 -1.4922  1.0812
 1818SOL     OW 6903   4.706   5.708   4.826  0.0075  0.2786  0.2544
 1818SOL    HW1 6904   4.672   5.637   4.772 -1.5433  0.2762  1.1891
 1818SOL    HW2 6905   4.715   5.782   4.766  0.5087 -0.3592 -0.4706
 1819SOL     OW 6906   6.347   2.677   0.231 -0.4454 -0.1088  0.0299
 1819SOL    HW1 6907   6.363   2.599   0.284  1.5687 -0.2712 -0.7526
 1819SOL    HW2 6908   6.330   2.643   0.143 -0.5400  0.3060 -0.1142
 1820SOL     OW 6909   3.757   0.668   6.336  0.1842 -0.4936 -0.2108
 1820SOL    HW1 6910   3.819   0.726   6.293 -1.0462  0.2329 -1.0456
 1820SOL    HW2 6911   3.765   0.690   6.429  1.0548 -0.3082 -0.3200
 1821SOL     OW 6912   2.203   4.242   5.311 -0.0345  0.5111  0.6448
 1821SOL    HW1 6913   2.209   4.291   5.229  0.3901  0.3539  0.5753
 1821SOL    HW2 6914   2.294   4.234   5.340  0.1284 -1.7723 -0.2594
 1822SOL     OW 6915   0.417   1.107   2.922 -0.7661  0.0721 -0.1710
 1822SOL    HW1 6916   0.470   1.045   2.871 -2.2744 -1.7457  0.3458
 1822SOL    HW2 6917   0.475   1.135   2.993 -0.6933 -2.6357  0.9772
 1823SOL     OW 6918   2.630   5.094   4.892 -0.4306  0.0315  0.3527
 1823SOL    HW1 6919   2.659   5.185   4.897 -0.4558  0.1152 -0.7886
 1823SOL    HW2 6920   2.709   5.044   4.870 -0.6532 -0.0503 -0.2924
 1824SOL     OW 6921   3.572   5.826   3.089 -0.4408 -0.2491 -0.1500
 1824SOL    HW1 6922   3.598   5.737   3.067  0.5491  0.2195 -0.9559
 1824SOL    HW2 6923   3.504   5.816   3.156  0.4560 -1.5536  0.5848
 1825SOL     OW 6924   2.803   4.545   5.640 -0.4019  0.2130  0.4777
 1825SOL    HW1 6925   2.817   4.629   5.683 -0.4502  0.3466  0.2354
 1825SOL    HW2 6926   2.785   4.484   5.712 -2.0812  0.7552  0.5578
 1826SOL     OW 6927   0.625   1.278   0.286  0.2825  0.3227 -0.0693
 1826SOL    HW1 6928   0.656   1.254   0.198 -0.5449 -0.5040 -0.1456
 1826SOL    HW2 6929   0.671   1.218   0.344  0.3875  0.4828  0.0143
 1827SOL     OW 6930   1.181   5.605   5.164 -0.2082  0.3394  0.4405
 1827SOL    HW1 6931   1.127   5.595   5.086 -0.2656  0.8158  0.4165
 1827SOL    HW2 6932   1.123   5.647   5.228 -0.3462 -0.5871  0.9399
 1828SOL     OW 6933   5.851   4.526   1.412  0.5549  0.1161 -0.6857
 1828SOL    HW1 6934   5.847   4.539   1.318 -2.8143  0.7100 -0.5812
 1828SOL    HW2 6935   5.872   4.612   1.448  0.6920  0.1553 -0.8630
 1829SOL     OW 6936   0.156   5.627   3.242 -0.1883 -0.3352  0.4788
 1829SOL    HW1 6937   0.223   5.560   3.231 -0.1244 -0.2619  0.4186
 1829SOL    HW2 6938   0.082   5.582   3.283  0.4601 -0.0963  1.9837
 1830SOL     OW 6939   3.388   6.100   6.391 -0.2284  0.1142 -0.2647
 1830SOL    HW1 6940   3.423   6.051   6.466  0.4716  1.7553  0.5390
 1830SOL    HW2 6941   3.377   6.034   6.323 -0.7232 -1.4111  1.2147
 1831SOL     OW 6942   5.281   0.902   4.999 -0.4093  0.2221 -0.0151
 1831SOL    HW1 6943   5.267   0.809   4.982 -0.8596  0.0840  1.0574
 1831SOL    HW2 6944   5.216   0.924   5.066  2.3868  0.2841  2.9081
 1832SOL     OW 6945   1.293   6.286   2.277  0.2014 -0.2049  0.1759
 1832SOL    HW1 6946   1.216   6.340   2.292 -0.9575 -1.5045 -0.8391
 1832SOL    HW2 6947   1.363   6.348   2.259 -0.8633  0.9666 -0.0258
 1833SOL     OW 6948   5.450   0.836   2.956 -0.0295  0.4075  0.0486
 1833SOL    HW1 6949   5.369   0.788   2.939 -0.6385  1.2016  0.6631
 1833SOL    HW2 6950   5.486   0.853   2.869 -1.4566  1.6210 -0.3415
 1834SOL     OW 6951   5.943   6.829   3.597  0.1467  0.0184 -0.5480
 1834SOL    HW1 6952   5.972   6.851   3.508  1.1212 -1.1485 -0.5527
 1834SOL    HW2 6953   5.944   6.912   3.644 -0.7686  0.7232 -1.7204
 1835SOL     OW 6954   1.319   2.655   0.176  0.1478  0.5893  0.2219
 1835SOL    HW1 6955   1.289   2.686   0.090  0.3431 -1.2358 -0.5566
 1835SOL    HW2 6956   1.264   2.702   0.238 -0.7131  1.2103 -0.9530
 1836SOL     OW 6957   2.361   4.714   6.392  0.0202  0.1907 -0.8397
 1836SOL    HW1 6958   2.336   4.632   6.435  1.4887 -0.0476 -0.3812
 1836SOL    HW2 6959   2.426   4.688   6.326 -0.8224  0.7868 -1.9498
 1837SOL     OW 6960   5.026   5.976   4.569  0.2370 -0.4763 -0.2772
 1837SOL    HW1 6961   5.010   6.066   4.596 -1.2472 -0.9820  0.6885
 1837SOL    HW2 6962   5.045   5.981   4.475  1.2126  0.9254 -0.0153
 1838SOL     OW 6963   0.807   0.953   1.138  0.1673 -0.0542  0.3629
 1838SOL    HW1 6964   0.714   0.967   1.149  0.0774  0.1129 -0.4994
 1838SOL    HW2 6965   0.813   0.873   1.085  0.4715  0.4945 -0.4520
 1839SOL     OW 6966   1.296   5.109   5.390 -0.9398  0.0495  0.0083
 1839SOL    HW1 6967   1.229   5.113   5.458 -0.0033  2.8021  0.9086
 1839SOL    HW2 6968   1.306   5.015   5.371 -2.4880 -0.6789  2.3843
 1840SOL     OW 6969   5.326   5.432   4.756  1.7732 -0.2062  0.9048
 1840SOL    HW1 6970   5.256   5.367   4.757 -1.0551  2.5476  0.1494
 1840SOL    HW2 6971   5.364   5.426   4.669 -0.2436  0.7211 -0.1247
 1841SOL     OW 6972   0.389   5.901   3.340  0.1482 -0.2610 -0.0594
 1841SOL    HW1 6973   0.449   5.867   3.407 -0.5106 -0.0381  0.6653
 1841SOL    HW2 6974   0.377   5.993   3.364 -1.1306 -0.5045  0.3102
 1842SOL     OW 6975   5.427   6.536   3.940  0.3756 -0.0717  0.2562
 1842SOL    HW1 6976   5.447   6.456   3.892 -1.1711  0.0497 -0.6749
 1842SOL    HW2 6977   5.339   6.523   3.975 -0.1844  1.4232 -0.4659
 1843SOL     OW 6978   2.233   5.825   4.694  0.2922 -0.1912  0.0760
 1843SOL    HW1 6979   2.280   5.781   4.765  0.7299 -1.7581 -1.1458
 1843SOL    HW2 6980   2.302   5.864   4.640  0.1099 -1.0155 -0.7696
 1844SOL     OW 6981   6.532   3.457   0.929 -0.0543 -0.0623  0.1107
 1844SOL    HW1 6982   6.537   3.553   0.929 -2.2080  0.1488  1.9137
 1844SOL    HW2 6983   6.591   3.430   1.000 -0.9954  0.1206  0.9866
 1845SOL     OW 6984   3.801   0.737   4.434  0.2850 -0.0533 -0.9818
 1845SOL    HW1 6985   3.721   0.702   4.472  0.8825 -0.2628  0.1284
 1845SOL    HW2 6986   3.834   0.666   4.379 -0.0468 -0.1424 -1.0663
 1846SOL     OW 6987   5.979   7.122   4.467  0.2913  0.2301 -0.0105
 1846SOL    HW1 6988   6.030   7.157   4.539 -0.5178 -0.0215  0.7114
 1846SOL    HW2 6989   5.900   7.177   4.465 -0.6912 -1.0777  0.7250
 1847SOL     OW 6990   3.281   4.499   4.057 -0.4407 -0.0157 -0.3605
 1847SOL    HW1 6991   3.314   4.424   4.008 -1.9138 -0.6898 -0.3553
 1847SOL    HW2 6992   3.248   4.559   3.990  0.0924  0.3193 -0.3276
 1848SOL     OW 6993   4.552   2.835   1.360 -0.1787  0.3673 -0.2674
 1848SOL    HW1 6994   4.523   2.869   1.275 -1.4325  0.1318  0.0428
 1848SOL    HW2 6995   4.480   2.857   1.420  0.4843  0.1247  0.6369
 1849SOL     OW 6996   1.136   2.075   6.403 -0.0580 -0.1834 -0.2963
 1849SOL    HW1 6997   1.077   2.150   6.401 -0.4836 -0.4210  1.4494
 1849SOL    HW2 6998   1.113   2.024   6.326 -2.7267 -0.6565  0.7090
 1850SOL     OW 6999   1.815   6.695   2.436  0.0789 -0.8165 -0.0912
 1850SOL    HW1 7000   1.781   6.646   2.360 -3.5164  2.4023 -0.8949
 1850SOL    HW2 7001   1.883   6.751   2.399  0.0659 -1.0282 -0.4466
 1851SOL     OW 7002   5.296   5.629   0.242  0.1806  0.3036 -0.0813
 1851SOL    HW1 7003   5.288   5.536   0.218 -1.5198 -0.1266  1.9374
 1851SOL    HW2 7004   5.229   5.673   0.190  2.0720  0.7684 -2.3164
 1852SOL     OW 7005   6.934   2.047   6.959  0.5418  0.8733 -0.1474
 1852SOL    HW1 7006   6.908   2.139   6.970  2.5306  1.3353  1.1439
 1852SOL    HW2 7007   6.990   2.047   6.882  1.8887  1.0915  0.7960
 1853SOL     OW 7008   4.893   3.392   1.515 -0.7169 -0.3721 -0.2836
 1853SOL    HW1 7009   4.799   3.380   1.518 -1.0608  1.9425 -0.0945
 1853SOL    HW2 7010   4.907   3.467   1.458  0.9904 -0.4021  0.0136
 1854SOL     OW 7011   3.105   5.285   1.676  0.2977  0.2401 -0.5803
 1854SOL    HW1 7012   3.102   5.254   1.585 -3.3083 -1.5975 -0.0487
 1854SOL    HW2 7013   3.095   5.205   1.728 -0.0549  1.4800  1.3210
 1855SOL     OW 7014   2.333   3.440   4.810 -0.3310  0.2914  0.1682
 1855SOL    HW1 7015   2.401   3.403   4.753  0.5636 -0.3444  1.6120
 1855SOL    HW2 7016   2.290   3.364   4.848 -0.3940  0.7155  0.9501
 1856SOL     OW 7017   4.810   3.302   3.330  0.8006 -0.2252 -0.4189
 1856SOL    HW1 7018   4.742   3.302   3.263  1.7222  1.0307 -1.4061
 1856SOL    HW2 7019   4.764   3.324   3.411  0.2255  2.4695 -1.3770
 1857SOL     OW 7020   6.810   5.621   3.106  0.5701  0.0817  0.3748
 1857SOL    HW1 7021   6.875   5.575   3.160 -0.0087 -1.2555 -0.0097
 1857SOL    HW2 7022   6.748   5.658   3.168  0.5147 -0.5058  0.6792
 1858SOL     OW 7023   4.531   6.195   1.440  0.5677 -0.3464 -0.3342
 1858SOL    HW1 7024   4.495   6.230   1.522 -1.2893  0.2490 -1.3686
 1858SOL    HW2 7025   4.550   6.103   1.461  0.1194 -0.2103  0.7709
 1859SOL     OW 7026   0.176   1.462   5.206 -0.1855 -0.9658  0.2904
 1859SOL    HW1 7027   0.084   1.438   5.203 -0.0546 -1.7833  1.9187
 1859SOL    HW2 7028   0.223   1.380   5.187  0.2196 -0.7782  0.4619
 1860SOL     OW 7029   0.578   6.275   0.214  0.1638  0.4105  0.1609
 1860SOL    HW1 7030   0.484   6.274   0.235 -0.3702 -3.5520 -1.4919
 1860SOL    HW2 7031   0.581   6.288   0.120  1.0917 -1.2891 -0.0779
 1861SOL     OW 7032   0.695   0.518   3.582  0.4273  0.2507  0.7174
 1861SOL    HW1 7033   0.666   0.427   3.575  2.1407 -0.4375  1.9604
 1861SOL    HW2 7034   0.764   0.526   3.516  0.4073  0.5878  0.7378
 1862SOL     OW 7035   0.652   6.708   5.478 -0.3769 -0.5298  0.7084
 1862SOL    HW1 7036   0.746   6.707   5.493 -0.1575  1.5566 -0.1016
 1862SOL    HW2 7037   0.635   6.631   5.424  1.0829 -0.2661 -0.1678
 1863SOL     OW 7038   6.799   3.153   2.461  0.2338  0.0207  0.4552
 1863SOL    HW1 7039   6.868   3.215   2.436  1.4205 -1.6736 -0.7548
 1863SOL    HW2 7040   6.795   3.158   2.556  0.6285  1.5948  0.4149
 1864SOL     OW 7041   1.652   1.470   1.655  0.1434  0.4083  0.0637
 1864SOL    HW1 7042   1.665   1.375   1.645  0.1051  0.2752  1.1813
 1864SOL    HW2 7043   1.571   1.488   1.608 -0.4813 -0.3242  0.8229
 1865SOL     OW 7044   6.718   5.465   3.831 -0.4953 -0.7648  0.5060
 1865SOL    HW1 7045   6.697   5.452   3.924  0.9579 -2.0866  0.6894
 1865SOL    HW2 7046   6.666   5.399   3.785 -0.6629 -0.5926  0.4467
 1866SOL     OW 7047   3.529   4.813   5.760 -0.0194  0.3538 -0.1532
 1866SOL    HW1 7048   3.607   4.844   5.715 -0.3300  1.6279  0.1424
 1866SOL    HW2 7049   3.492   4.746   5.702 -0.0699  1.5246 -1.4952
 1867SOL     OW 7050   1.637   1.521   6.181  0.2106  0.5563  0.7723
 1867SOL    HW1 7051   1.720   1.480   6.155  0.5144  1.6648 -0.1063
 1867SOL    HW2 7052   1.605   1.563   6.101 -0.7096  0.9809  1.3436
 1868SOL     OW 7053   7.064   6.928   6.476 -0.2609  0.0881  0.5868
 1868SOL    HW1 7054   7.082   6.851   6.529  2.7127 -0.3189 -0.7668
 1868SOL    HW2 7055   7.138   6.932   6.415  0.8766  5.0689  1.8189
 1869SOL     OW 7056   6.384   0.199   6.330  0.2445  0.2695 -0.0872
 1869SOL    HW1 7057   6.404   0.284   6.291  1.6525 -0.3856 -0.8752
 1869SOL    HW2 7058   6.289   0.191   6.322  0.3503  0.6328 -2.4704
 1870SOL     OW 7059   3.699   1.876   0.131  0.5709 -0.3791 -0.4255
 1870SOL    HW1 7060   3.751   1.956   0.125 -1.9229  1.2373 -2.2634
 1870SOL    HW2 7061   3.616   1.903   0.169 -2.4530 -0.6434 -5.7646
 1871SOL     OW 7062   0.406   6.307   3.664  0.0055 -0.1454  0.1886
 1871SOL    HW1 7063   0.312   6.324   3.658  0.0539  0.1943  0.3352
 1871SOL    HW2 7064   0.446   6.394   3.671  0.4262 -0.2085 -1.1111
 1872SOL     OW 7065   5.927   1.111   5.699  0.3291 -0.1327  0.5334
 1872SOL    HW1 7066   5.908   1.182   5.638  2.6726  0.1175  0.0039
 1872SOL    HW2 7067   5.872   1.039   5.670 -0.5279  0.7937 -0.2249
 1873SOL     OW 7068   2.708   4.622   7.097 -0.7924  0.2321 -0.0157
 1873SOL    HW1 7069   2.700   4.541   7.147  0.1528  0.0484 -0.1527
 1873SOL    HW2 7070   2.759   4.597   7.020 -0.0097  1.0816  0.2193
 1874SOL     OW 7071   2.482   5.782   6.121  0.4028 -0.5719 -0.0467
 1874SOL    HW1 7072   2.454   5.703   6.168 -1.3455 -0.1206 -0.2267
 1874SOL    HW2 7073   2.450   5.854   6.175  0.9231 -0.0080 -0.4819
 1875SOL     OW 7074   1.239   2.856   5.295 -0.2126  0.3564 -0.5642
 1875SOL    HW1 7075   1.269   2.885   5.382 -1.7484  1.5708 -0.3970
 1875SOL    HW2 7076   1.317   2.818   5.254  0.8921  1.0849  0.7874
 1876SOL     OW 7077   3.072   2.982   0.824  0.6072  0.1594 -0.3822
 1876SOL    HW1 7078   2.986   2.969   0.786 -0.2227 -0.2022  1.5035
 1876SOL    HW2 7079   3.095   3.073   0.802 -1.0324  0.8353  0.5529
 1877SOL     OW 7080   0.710   3.288   7.065  0.1188  0.0213  0.7222
 1877SOL    HW1 7081   0.781   3.349   7.046 -2.0024  2.0171 -1.3651
 1877SOL    HW2 7082   0.739   3.205   7.026  1.5118  0.6513  0.3792
 1878SOL     OW 7083   0.507   2.696   4.064 -0.3614  0.6713 -0.1267
 1878SOL    HW1 7084   0.512   2.702   3.969  1.5786  1.0136 -0.0385
 1878SOL    HW2 7085   0.480   2.783   4.092 -1.6737  0.3722 -0.3580
 1879SOL     OW 7086   2.788   3.445   3.696 -0.5892 -0.7297 -0.2935
 1879SOL    HW1 7087   2.827   3.475   3.614  1.0970  0.4706  0.8726
 1879SOL    HW2 7088   2.759   3.356   3.678  0.1577 -0.6553 -2.0553
 1880SOL     OW 7089   7.027   5.423   2.207 -0.2463  0.2659  0.2772
 1880SOL    HW1 7090   7.091   5.397   2.141 -0.3769 -2.5034  1.1335
 1880SOL    HW2 7091   7.079   5.439   2.286 -0.4520 -0.4477  0.5620
 1881SOL     OW 7092   0.548   4.449   0.913  0.3787  0.6341 -0.1940
 1881SOL    HW1 7093   0.522   4.386   0.846  2.1614 -0.5797  0.1549
 1881SOL    HW2 7094   0.522   4.534   0.878  0.0309 -0.0880 -1.7997
 1882SOL     OW 7095   5.660   4.913   2.528 -0.0882 -0.0397  0.1761
 1882SOL    HW1 7096   5.744   4.867   2.529  0.0104  0.1376  0.3613
 1882SOL    HW2 7097   5.676   4.991   2.582 -0.1547  0.3838 -0.4089
 1883SOL     OW 7098   4.739   4.873   3.401 -0.4973  0.4248  0.2585
 1883SOL    HW1 7099   4.650   4.870   3.435 -0.4426 -0.4426  0.3423
 1883SOL    HW2 7100   4.787   4.928   3.463 -0.8418  0.4171  0.5294
 1884SOL     OW 7101   1.203   6.810   5.686  0.0866 -0.4952 -0.1931
 1884SOL    HW1 7102   1.156   6.887   5.652  1.8797  0.3658 -0.8943
 1884SOL    HW2 7103   1.152   6.735   5.656 -1.3290  0.3975 -0.1028
 1885SOL     OW 7104   1.061   6.987   4.650  0.6058  0.2733  0.2537
 1885SOL    HW1 7105   1.055   6.995   4.746 -0.5511  0.0112  0.2183
 1885SOL    HW2 7106   1.014   7.063   4.617  1.3577  0.5845 -0.1239
 1886SOL     OW 7107   4.701   1.301   0.802  0.0628  0.2092 -0.0582
 1886SOL    HW1 7108   4.774   1.265   0.753 -1.8564 -1.6304 -1.7562
 1886SOL    HW2 7109   4.678   1.382   0.754  1.5134  1.3378  1.0619
 1887SOL     OW 7110   2.288   2.799   5.713  0.1528  0.2561 -0.0952
 1887SOL    HW1 7111   2.359   2.750   5.754 -0.3039 -0.7339 -0.4445
 1887SOL    HW2 7112   2.279   2.760   5.626 -0.0979  1.1010 -0.4649
 1888SOL     OW 7113   5.331   2.943   5.653  0.0373  0.2041  0.4259
 1888SOL    HW1 7114   5.341   2.848   5.661 -0.1409  0.1762  0.3143
 1888SOL    HW2 7115   5.331   2.960   5.559 -2.2081  0.0613  0.3587
 1889SOL     OW 7116   4.670   0.453   6.338 -0.5823 -0.3830  0.3635
 1889SOL    HW1 7117   4.761   0.424   6.349 -1.3612 -2.3329  2.3821
 1889SOL    HW2 7118   4.675   0.549   6.343  1.1203 -0.5115  2.9110
 1890SOL     OW 7119   1.499   6.128   2.157 -0.4145  0.0853  0.3299
 1890SOL    HW1 7120   1.456   6.091   2.080 -0.9386  0.1579  0.5822
 1890SOL    HW2 7121   1.593   6.112   2.143 -0.6338 -1.3566  0.4594
 1891SOL     OW 7122   5.408   4.466   7.009  0.2770 -0.1781  0.1218
 1891SOL    HW1 7123   5.355   4.419   7.073  0.0958  0.8394  0.7518
 1891SOL    HW2 7124   5.358   4.545   6.990  2.0612  1.4318  1.6467
 1892SOL     OW 7125   0.960   1.809   6.867 -0.6091 -0.6142 -0.1367
 1892SOL    HW1 7126   0.954   1.809   6.962  0.2117 -1.0725 -0.0725
 1892SOL    HW2 7127   1.050   1.783   6.849 -0.3551  0.7774 -1.0190
 1893SOL     OW 7128   6.684   2.230   4.064  0.2896  0.8792  0.3489
 1893SOL    HW1 7129   6.625   2.231   4.140 -1.7974 -0.7006 -1.1451
 1893SOL    HW2 7130   6.771   2.244   4.102 -0.5264 -0.8070  3.1782
 1894SOL     OW 7131   1.065   5.075   6.919 -0.6208  0.5172  0.2478
 1894SOL    HW1 7132   1.087   5.011   6.851  0.2383  2.5172 -1.5055
 1894SOL    HW2 7133   1.006   5.029   6.978  0.6075 -2.1101 -0.4262
 1895SOL     OW 7134   0.111   1.779   3.705  0.2442  0.3351  0.8864
 1895SOL    HW1 7135   0.037   1.794   3.646  0.8418  1.1378  0.3273
 1895SOL    HW2 7136   0.163   1.859   3.700  1.0723 -0.1535  1.3900
 1896SOL     OW 7137   2.482   0.070   0.736 -0.5146  0.5486  0.0994
 1896SOL    HW1 7138   2.499   0.137   0.669 -0.4930  0.9231  0.4742
 1896SOL    HW2 7139   2.532   0.099   0.812  0.5808 -0.6118 -0.1604
 1897SOL     OW 7140   1.876   6.512   6.848  0.2605  0.1865 -0.7578
 1897SOL    HW1 7141   1.916   6.597   6.827  0.9072  0.2865  0.7671
 1897SOL    HW2 7142   1.785   6.520   6.819  0.4592  1.2016 -1.1297
 1898SOL     OW 7143   6.910   3.928   0.734  0.0002 -0.5267  0.2275
 1898SOL    HW1 7144   6.846   3.955   0.800 -0.7728 -1.9811  0.1266
 1898SOL    HW2 7145   6.963   3.861   0.778 -0.6709 -1.6854 -0.6605
 1899SOL     OW 7146   0.247   6.867   4.663  0.1818  0.0142  0.4224
 1899SOL    HW1 7147   0.266   6.827   4.748  0.0479  1.4919  1.1864
 1899SOL    HW2 7148   0.248   6.961   4.680 -1.2989  0.3140 -0.8987
 1900SOL     OW 7149   5.024   0.970   0.408  0.3611  0.3138 -0.1796
 1900SOL    HW1 7150   5.037   1.047   0.352 -0.5555 -0.3903 -1.4232
 1900SOL    HW2 7151   5.057   0.897   0.356  1.6846 -0.0990  1.1982
 1901SOL     OW 7152   1.434   6.179   2.588 -0.1647 -0.4516 -0.0516
 1901SOL    HW1 7153   1.427   6.273   2.608  0.1061 -0.0050 -1.8915
 1901SOL    HW2 7154   1.526   6.158   2.603 -0.0860 -0.2667 -0.2771
 1902SOL     OW 7155   3.311   2.894   0.497  0.0258 -0.1135 -0.6379
 1902SOL    HW1 7156   3.342   2.982   0.518  1.4737 -0.6359 -0.4471
 1902SOL    HW2 7157   3.270   2.903   0.410  1.5010  0.4798 -1.3099
 1903SOL     OW 7158   4.552   5.318   4.844 -0.6133  0.4910 -0.3503
 1903SOL    HW1 7159   4.528   5.228   4.826  0.0496  0.5598 -1.7180
 1903SOL    HW2 7160   4.644   5.314   4.870 -0.5143  0.7914 -0.6459
 1904SOL     OW 7161   1.624   5.533   3.544  0.5589  0.1727  0.1515
 1904SOL    HW1 7162   1.631   5.499   3.634 -0.5398  2.1791  1.0624
 1904SOL    HW2 7163   1.711   5.566   3.525  0.5294  0.7510  0.9476
 1905SOL     OW 7164   6.325   6.557   1.074 -0.1141 -0.3039  0.0882
 1905SOL    HW1 7165   6.404   6.602   1.104  0.2840 -0.3015 -0.9270
 1905SOL    HW2 7166   6.323   6.476   1.126 -0.4360  0.5089  1.3914
 1906SOL     OW 7167   5.540   6.886   0.958  0.0419 -0.0749 -0.2146
 1906SOL    HW1 7168   5.586   6.916   0.879  0.5546 -0.9907 -0.2720
 1906SOL    HW2 7169   5.607   6.839   1.008 -0.1482  0.9237  1.0180
 1907SOL     OW 7170   6.166   0.577   5.714 -0.3419 -0.4877 -0.3755
 1907SOL    HW1 7171   6.159   0.671   5.726  1.5515 -0.4151  0.5908
 1907SOL    HW2 7172   6.102   0.556   5.646  0.1607  1.7056 -1.6294
 1908SOL     OW 7173   1.013   5.047   6.609  0.1450 -0.6106  0.1662
 1908SOL    HW1 7174   0.997   5.142   6.605 -0.5172 -0.7553 -1.9885
 1908SOL    HW2 7175   1.096   5.035   6.563 -1.4359 -1.3190 -2.7629
 1909SOL     OW 7176   0.321   3.857   6.199 -0.1246 -0.2991 -0.3042
 1909SOL    HW1 7177   0.265   3.785   6.227  0.1821  0.4325  2.4883
 1909SOL    HW2 7178   0.402   3.846   6.249 -0.3953  2.4027  0.9185
 1910SOL     OW 7179   5.149   4.975   2.701  0.1162  0.2123 -0.2184
 1910SOL    HW1 7180   5.220   4.941   2.755  0.3630  0.1613 -0.5774
 1910SOL    HW2 7181   5.091   4.900   2.688 -1.4643  0.8593  2.3635
 1911SOL     OW 7182   5.851   3.584   6.496 -0.3030 -0.1122  0.1807
 1911SOL    HW1 7183   5.900   3.512   6.456  0.4980  0.2153  0.5442
 1911SOL    HW2 7184   5.770   3.545   6.528 -0.2770 -0.6688 -0.4246
 1912SOL     OW 7185   7.034   1.673   1.910 -0.0746 -0.2964  0.2145
 1912SOL    HW1 7186   7.080   1.602   1.864  2.2169  1.3572 -0.2653
 1912SOL    HW2 7187   7.016   1.637   1.996  0.9476 -1.5217 -0.0362
 1913SOL     OW 7188   5.684   1.525   4.780 -0.9232 -0.0186 -0.2302
 1913SOL    HW1 7189   5.752   1.592   4.777 -1.6269  0.6766 -1.4763
 1913SOL    HW2 7190   5.717   1.461   4.843  1.6282 -0.5214 -1.9009
 1914SOL     OW 7191   3.271   6.340   0.292 -0.0989 -0.2369  0.2086
 1914SOL    HW1 7192   3.257   6.250   0.321 -1.9659 -1.2569 -3.2727
 1914SOL    HW2 7193   3.208   6.392   0.342  0.1588 -1.0404  1.3905
 1915SOL     OW 7194   1.192   3.489   4.996 -0.2063  0.8675 -0.0255
 1915SOL    HW1 7195   1.175   3.395   4.994  0.3857  0.7113  1.3843
 1915SOL    HW2 7196   1.210   3.512   4.905  0.4182 -0.5395 -0.2732
 1916SOL     OW 7197   0.009   6.195   4.098  0.6902  0.5497  0.3455
 1916SOL    HW1 7198   0.035   6.285   4.074  1.7157 -0.1412 -1.3445
 1916SOL    HW2 7199  -0.075   6.182   4.055  0.1100  0.9695  1.3208
 1917SOL     OW 7200   6.976   6.260   5.228 -0.0766 -0.1463  0.5551
 1917SOL    HW1 7201   6.979   6.177   5.276  0.1709  0.4519  1.5810
 1917SOL    HW2 7202   7.065   6.294   5.233  0.4256 -0.8855 -1.8377
 1918SOL     OW 7203   0.023   2.870   6.246  0.0984  0.4777  0.2181
 1918SOL    HW1 7204   0.060   2.787   6.275 -2.7332 -0.9450  0.1453
 1918SOL    HW2 7205   0.017   2.922   6.326  1.2627  0.3763  0.3885
 1919SOL     OW 7206   3.973   6.639   2.264 -0.4428 -0.9592  0.3537
 1919SOL    HW1 7207   4.020   6.579   2.206  0.1377 -1.9759  1.8170
 1919SOL    HW2 7208   3.887   6.598   2.277 -0.9370 -0.2440 -0.5150
 1920SOL     OW 7209   3.244   1.826   4.923 -0.0504 -0.2884  0.4059
 1920SOL    HW1 7210   3.227   1.733   4.908 -2.6513  0.1192  0.3146
 1920SOL    HW2 7211   3.164   1.870   4.893  0.8987  1.9314  0.9411
 1921SOL     OW 7212   1.153   6.325   5.485  0.0821 -0.2679  0.0163
 1921SOL    HW1 7213   1.134   6.232   5.502  0.7260 -0.6583 -1.2738
 1921SOL    HW2 7214   1.068   6.368   5.491 -0.3282 -1.0557 -0.0188
 1922SOL     OW 7215   4.735   6.476   5.077  0.2679 -0.4592 -0.0147
 1922SOL    HW1 7216   4.688   6.483   4.994  0.8621 -4.0258 -0.8192
 1922SOL    HW2 7217   4.667   6.456   5.142 -0.1541  1.9986  0.3774
 1923SOL     OW 7218   2.895   0.250   2.661 -0.1788  0.1696 -0.4592
 1923SOL    HW1 7219   2.905   0.337   2.699  1.6365 -0.4425  0.5911
 1923SOL    HW2 7220   2.899   0.264   2.567  0.5112  1.2028 -0.2939
 1924SOL     OW 7221   0.348   5.621   4.219 -0.6656 -0.0588 -1.0414
 1924SOL    HW1 7222   0.261   5.612   4.181 -1.6647 -0.7121  1.2207
 1924SOL    HW2 7223   0.355   5.546   4.279  0.7907  0.9084  0.0500
 1925SOL     OW 7224   3.006   4.698   4.923 -0.4177 -0.3155 -0.3675
 1925SOL    HW1 7225   3.009   4.648   4.842 -2.1643 -0.9780 -0.0510
 1925SOL    HW2 7226   3.038   4.636   4.990  0.3792  0.0147 -0.4321
 1926SOL     OW 7227   1.995   4.378   0.942 -0.2950  0.0454  0.0339
 1926SOL    HW1 7228   2.042   4.338   1.016  0.3033  2.5811  1.1216
 1926SOL    HW2 7229   2.041   4.460   0.926 -3.1578  1.7570 -0.1160
 1927SOL     OW 7230   3.588   0.342   1.352  0.6228 -0.6646 -0.4749
 1927SOL    HW1 7231   3.670   0.306   1.318  0.9296  0.9110 -1.5177
 1927SOL    HW2 7232   3.555   0.398   1.281  1.2156  2.6656  1.6265
 1928SOL     OW 7233   5.028   5.618   6.903  0.4861 -0.0918 -0.2398
 1928SOL    HW1 7234   4.965   5.557   6.941  0.5151 -0.1845 -0.3375
 1928SOL    HW2 7235   4.983   5.702   6.900  0.4021 -0.1366 -0.2183
 1929SOL     OW 7236   5.354   0.012   5.993 -0.0281  0.1025 -0.4086
 1929SOL    HW1 7237   5.422   0.015   6.061  1.3239  1.4583 -1.7371
 1929SOL    HW2 7238   5.319  -0.076   5.998  0.8258 -0.1905  1.2939
 1930SOL     OW 7239   6.498   4.744   3.008 -0.3605  0.9623  0.1972
 1930SOL    HW1 7240   6.502   4.764   3.102 -0.2024 -0.2165  0.4679
 1930SOL    HW2 7241   6.551   4.811   2.966  1.5361  0.1753  1.2107
 1931SOL     OW 7242   4.095   5.893   2.275  0.1882  0.0510 -0.1052
 1931SOL    HW1 7243   4.030   5.869   2.209  0.0891 -0.6623  0.2387
 1931SOL    HW2 7244   4.044   5.925   2.349  0.2977  0.8024 -0.3454
 1932SOL     OW 7245   1.549   1.147   3.763 -0.4459 -0.3655  0.1720
 1932SOL    HW1 7246   1.526   1.126   3.672 -4.0579 -3.5227  1.5234
 1932SOL    HW2 7247   1.581   1.064   3.799 -0.1198  0.5247  2.0406
 1933SOL     OW 7248   6.024   0.498   6.885 -0.3006  0.1980 -0.6093
 1933SOL    HW1 7249   6.101   0.449   6.914  1.2331  1.5127 -2.1603
 1933SOL    HW2 7250   5.952   0.466   6.940  1.2459 -1.4189  0.5937
 1934SOL     OW 7251   4.486   4.384   5.957  0.4245 -0.0433  0.6344
 1934SOL    HW1 7252   4.432   4.406   6.033  0.6935 -0.1787  0.8674
 1934SOL    HW2 7253   4.574   4.372   5.993  0.3902 -0.9666  0.4394
 1935SOL     OW 7254   4.155   5.559   3.163 -0.6370 -0.2748 -0.4053
 1935SOL    HW1 7255   4.109   5.626   3.113  0.4639  1.2242  0.5046
 1935SOL    HW2 7256   4.102   5.480   3.153 -1.1695  0.3195 -2.7824
 1936SOL     OW 7257   2.463   4.818   3.065 -0.4958  0.5936 -0.0945
 1936SOL    HW1 7258   2.515   4.855   3.136  1.0588 -0.1872 -0.7842
 1936SOL    HW2 7259   2.499   4.730   3.052 -2.1735 -0.0787 -0.4322
 1937SOL     OW 7260   2.935   4.672   6.066  0.4576 -0.3705  0.1657
 1937SOL    HW1 7261   3.026   4.696   6.084  0.1416  1.3137 -0.3380
 1937SOL    HW2 7262   2.912   4.720   5.986 -1.1085 -0.1160  0.7191
 1938SOL     OW 7263   3.424   1.143   6.653 -0.7644 -0.3680 -0.7666
 1938SOL    HW1 7264   3.393   1.058   6.622  0.3491 -0.1878 -2.4950
 1938SOL    HW2 7265   3.441   1.130   6.747 -1.7529 -1.6866 -0.7476
 1939SOL     OW 7266   5.307   3.014   3.127  0.3729  0.0475  0.1546
 1939SOL    HW1 7267   5.232   3.054   3.170  0.1661 -1.6371  1.4302
 1939SOL    HW2 7268   5.302   3.046   3.037 -2.5681 -0.9138 -0.1266
 1940SOL     OW 7269   2.604   4.527   1.308 -0.1754 -0.2469 -0.0371
 1940SOL    HW1 7270   2.531   4.493   1.359 -1.5881  1.3293 -0.8911
 1940SOL    HW2 7271   2.602   4.476   1.227 -0.9795  0.4175 -0.4572
 1941SOL     OW 7272   1.477   5.065   3.857 -0.2224  0.5767 -0.4470
 1941SOL    HW1 7273   1.528   5.053   3.938 -0.6366 -0.8634 -0.3702
 1941SOL    HW2 7274   1.541   5.097   3.793  0.0410  2.0847  0.5167
 1942SOL     OW 7275   4.628   6.719   2.239 -0.0563 -0.0688 -0.0501
 1942SOL    HW1 7276   4.707   6.772   2.240  0.1315 -0.0100 -3.8685
 1942SOL    HW2 7277   4.560   6.777   2.204 -1.4682 -0.5685  1.7210
 1943SOL     OW 7278   4.422   4.007   6.600 -0.5663  0.3412 -0.0082
 1943SOL    HW1 7279   4.466   4.083   6.637 -0.7614  0.0838  0.7605
 1943SOL    HW2 7280   4.341   3.998   6.650  0.7044 -1.9976  1.8234
 1944SOL     OW 7281   3.865   1.129   1.293 -0.1916  0.2066  0.2890
 1944SOL    HW1 7282   3.956   1.152   1.273  0.2904  0.2680  2.3797
 1944SOL    HW2 7283   3.835   1.199   1.351 -1.3069 -0.2578  0.2948
 1945SOL     OW 7284   0.684   1.307   5.681  0.2447 -0.3001 -0.3552
 1945SOL    HW1 7285   0.699   1.399   5.658 -1.0277 -0.0703 -0.3948
 1945SOL    HW2 7286   0.588   1.300   5.688  0.3096 -1.6741 -0.5559
 1946SOL     OW 7287   1.275   3.707   6.236  0.1677 -0.2280 -0.0430
 1946SOL    HW1 7288   1.280   3.800   6.217 -1.4015 -0.6335 -3.1081
 1946SOL    HW2 7289   1.366   3.678   6.245  0.7842  1.2395 -1.2344
 1947SOL     OW 7290   0.146   0.412   4.366 -0.3953 -0.0543 -0.2324
 1947SOL    HW1 7291   0.180   0.323   4.355 -0.0269  0.0528  0.0033
 1947SOL    HW2 7292   0.064   0.401   4.414  0.0052 -0.2240  0.4401
 1948SOL     OW 7293   7.022   5.015   5.669  0.3037  0.0760  0.6987
 1948SOL    HW1 7294   7.059   4.930   5.693  1.4889  0.7193  1.2024
 1948SOL    HW2 7295   6.976   5.044   5.747 -2.6318 -1.3664 -0.3519
 1949SOL     OW 7296   4.857   3.912   5.260 -0.4904 -0.2704 -0.2126
 1949SOL    HW1 7297   4.842   3.962   5.340  0.8715  0.4554 -0.3960
 1949SOL    HW2 7298   4.864   3.821   5.290 -0.7672 -0.0970  0.3955
 1950SOL     OW 7299   4.897   3.204   4.267 -0.3902 -0.1992  0.2033
 1950SOL    HW1 7300   4.941   3.124   4.295  0.2500  0.5134  1.3086
 1950SOL    HW2 7301   4.958   3.245   4.206 -0.9728 -0.8167 -0.8306
 1951SOL     OW 7302   6.770   5.670   6.431 -0.2200  0.2683 -0.0777
 1951SOL    HW1 7303   6.773   5.701   6.340 -2.3077  1.6336  0.2601
 1951SOL    HW2 7304   6.782   5.748   6.484  0.6289 -0.4643  0.8507
 1952SOL     OW 7305   6.611   3.279   5.109  0.1545  0.1796 -0.3651
 1952SOL    HW1 7306   6.527   3.239   5.131  0.0316  1.2200  1.2580
 1952SOL    HW2 7307   6.677   3.216   5.139 -0.0369 -0.3706 -1.0904
 1953SOL     OW 7308   5.285   1.372   4.507  0.2718 -0.2818  0.4049
 1953SOL    HW1 7309   5.313   1.400   4.420  0.5719 -0.8296  0.3212
 1953SOL    HW2 7310   5.257   1.453   4.551 -0.0954 -0.0392 -0.2748
 1954SOL     OW 7311   4.882   2.501   2.180  0.3071 -0.1978 -0.1117
 1954SOL    HW1 7312   4.868   2.594   2.199  1.9774  0.1619 -0.4886
 1954SOL    HW2 7313   4.951   2.500   2.114 -1.5378 -1.6239 -2.1837
 1955SOL     OW 7314   3.319   0.895   1.341  0.2620  0.5887  0.1899
 1955SOL    HW1 7315   3.267   0.860   1.268 -0.0832  0.6500  0.4034
 1955SOL    HW2 7316   3.254   0.921   1.406  0.5205  1.4866  0.1033
 1956SOL     OW 7317   3.927   5.816   1.841 -0.3093 -0.2837 -0.2436
 1956SOL    HW1 7318   3.936   5.722   1.859 -1.9661 -0.7376 -1.6262
 1956SOL    HW2 7319   3.899   5.853   1.925 -5.1621 -1.9359 -0.8250
 1957SOL     OW 7320   0.316   6.458   3.202 -0.6880  0.5911 -0.6394
 1957SOL    HW1 7321   0.314   6.535   3.145  0.8621  0.6778 -0.6046
 1957SOL    HW2 7322   0.355   6.389   3.148 -0.5998  0.2571 -0.1555
 1958SOL     OW 7323   5.534   4.628   0.680  1.2667 -0.1993  0.2809
 1958SOL    HW1 7324   5.571   4.546   0.711  1.5847  0.6498  2.3343
 1958SOL    HW2 7325   5.595   4.695   0.712  2.1679  0.7895 -3.1018
 1959SOL     OW 7326   5.830   4.100   4.297 -0.1844  0.0252 -0.1292
 1959SOL    HW1 7327   5.814   4.121   4.389 -0.3714  0.5989 -0.2889
 1959SOL    HW2 7328   5.805   4.008   4.289  0.5215 -0.2456  0.5531
 1960SOL     OW 7329   3.973   5.296   1.998 -0.8592  0.0510 -0.0457
 1960SOL    HW1 7330   3.996   5.205   1.977  0.3469  0.5445 -0.9577
 1960SOL    HW2 7331   3.964   5.297   2.093  1.5156 -0.5160  0.2274
 1961SOL     OW 7332   1.153   3.753   2.144  0.1257  0.3466  0.1499
 1961SOL    HW1 7333   1.062   3.772   2.167 -0.3505  0.3151 -1.5980
 1961SOL    HW2 7334   1.164   3.660   2.167 -0.6098  0.0629 -0.6007
 1962SOL     OW 7335   3.686   5.184   5.674 -0.0157  0.6308  0.5059
 1962SOL    HW1 7336   3.687   5.277   5.694  0.2618  0.5631  0.8305
 1962SOL    HW2 7337   3.708   5.142   5.757  2.4730  0.4002 -0.1788
 1963SOL     OW 7338   2.460   6.941   5.806  0.0509  0.4880 -0.2587
 1963SOL    HW1 7339   2.517   6.865   5.815 -0.0119  0.6208  2.1913
 1963SOL    HW2 7340   2.380   6.907   5.767  0.5964 -0.3865 -0.6321
 1964SOL     OW 7341   3.003   3.166   6.946 -0.3376  0.2213  0.1969
 1964SOL    HW1 7342   2.973   3.075   6.958 -0.1203  0.2862  1.3628
 1964SOL    HW2 7343   3.080   3.158   6.890 -1.1759 -0.1598 -0.9450
 1965SOL     OW 7344   0.430   1.900   2.794  0.1894  0.1539  0.5563
 1965SOL    HW1 7345   0.424   1.936   2.883  0.8270  0.1860  0.5846
 1965SOL    HW2 7346   0.477   1.967   2.745 -0.3486  0.2302  0.1407
 1966SOL     OW 7347   1.230   5.394   1.110  0.3093  0.0653 -0.6078
 1966SOL    HW1 7348   1.167   5.323   1.097  0.6060 -0.4868  0.7979
 1966SOL    HW2 7349   1.188   5.452   1.173  1.1136 -0.2362  0.2327
 1967SOL     OW 7350   3.487   3.811   5.343 -0.1629  0.5014 -0.3963
 1967SOL    HW1 7351   3.444   3.757   5.276 -0.3368  1.0040 -0.6966
 1967SOL    HW2 7352   3.428   3.809   5.418  0.3066 -0.5345 -0.0462
 1968SOL     OW 7353   3.323   5.625   4.836 -0.8858  0.0001 -0.6442
 1968SOL    HW1 7354   3.323   5.557   4.768  0.1615  0.0181 -0.6751
 1968SOL    HW2 7355   3.240   5.613   4.881 -1.7400  0.1810 -2.1154
 1969SOL     OW 7356   4.440   0.843   6.196 -0.3403  0.9749 -0.2089
 1969SOL    HW1 7357   4.372   0.902   6.228 -2.0286 -0.7463 -0.4320
 1969SOL    HW2 7358   4.396   0.790   6.130  1.3225 -0.0206 -0.5726
 1970SOL     OW 7359   3.256   3.175   2.335  0.1550 -0.1162  0.3907
 1970SOL    HW1 7360   3.181   3.124   2.304  0.1183  0.8352 -1.1505
 1970SOL    HW2 7361   3.232   3.201   2.424 -0.5240 -1.3802  0.5966
 1971SOL     OW 7362   3.230   6.449   1.731  0.4737  0.6620 -0.1445
 1971SOL    HW1 7363   3.156   6.398   1.766  0.7144  0.9693  0.8442
 1971SOL    HW2 7364   3.290   6.384   1.697 -0.7596  0.4378 -2.0684
 1972SOL     OW 7365   1.406   4.477   5.902  0.0898  0.2338  0.0891
 1972SOL    HW1 7366   1.494   4.438   5.899  0.7522  1.6880 -0.1255
 1972SOL    HW2 7367   1.355   4.417   5.956  1.9365  0.7743  2.5894
 1973SOL     OW 7368   2.803   2.690   2.486 -0.6621 -0.6456 -0.1064
 1973SOL    HW1 7369   2.759   2.666   2.405 -0.9243 -0.3347 -0.0624
 1973SOL    HW2 7370   2.892   2.712   2.461 -0.1045 -2.6754  0.0025
 1974SOL     OW 7371   7.090   0.165   2.128  0.3307 -0.0477  0.0281
 1974SOL    HW1 7372   7.148   0.119   2.067  0.9269  0.9114 -0.1467
 1974SOL    HW2 7373   7.095   0.114   2.209  0.5074 -0.6281 -0.3402
 1975SOL     OW 7374   6.509   0.496   3.501 -0.4349  0.0965 -0.0068
 1975SOL    HW1 7375   6.495   0.590   3.490  0.0031  0.4618  2.2329
 1975SOL    HW2 7376   6.604   0.486   3.509 -0.4338 -0.6175 -0.7192
 1976SOL     OW 7377   4.887   1.666   5.454  0.0668 -0.2847  0.1507
 1976SOL    HW1 7378   4.921   1.747   5.492 -1.7138  1.3036 -1.4490
 1976SOL    HW2 7379   4.835   1.627   5.524 -0.3780  0.8268  0.4667
 1977SOL     OW 7380   4.116   1.205   1.232 -0.0945  0.0668  0.2291
 1977SOL    HW1 7381   4.182   1.169   1.173  1.1293 -0.4013  1.8179
 1977SOL    HW2 7382   4.153   1.289   1.261 -1.0490  0.6752 -0.2478
 1978SOL     OW 7383   3.586   2.266   5.227 -0.0516 -0.3477  0.0045
 1978SOL    HW1 7384   3.674   2.232   5.215  0.4706  0.0730  2.1611
 1978SOL    HW2 7385   3.542   2.199   5.281 -0.1902  0.6124  1.1251
 1979SOL     OW 7386   0.913   0.534   2.515  0.3631  0.2437  0.0159
 1979SOL    HW1 7387   0.841   0.524   2.453  0.1313  2.1913 -0.0868
 1979SOL    HW2 7388   0.915   0.627   2.535  1.0275 -0.1780  2.2402
 1980SOL     OW 7389   3.807   3.663   5.387  0.0740  0.6654 -0.3955
 1980SOL    HW1 7390   3.792   3.758   5.382 -0.1904  0.6171 -0.5054
 1980SOL    HW2 7391   3.720   3.624   5.381  0.2216  0.3938 -0.8064
 1981SOL     OW 7392   4.051   2.309   2.588 -0.3279  0.2497 -0.5898
 1981SOL    HW1 7393   3.995   2.250   2.639  1.5021  0.3875  1.7606
 1981SOL    HW2 7394   3.996   2.337   2.515 -1.7661 -3.1743 -1.0170
 1982SOL     OW 7395   2.231   2.138   1.470  0.1564  0.7117  0.3595
 1982SOL    HW1 7396   2.175   2.133   1.392  0.2995  3.2994  0.0024
 1982SOL    HW2 7397   2.314   2.174   1.438  0.0245  2.3972  1.7453
 1983SOL     OW 7398   6.865   3.924   5.856 -0.1477  0.1757 -0.3283
 1983SOL    HW1 7399   6.782   3.926   5.809 -0.7092  1.3884  0.6641
 1983SOL    HW2 7400   6.854   3.855   5.922 -0.1645 -0.0486 -0.5681
 1984SOL     OW 7401   2.464   3.875   4.919  0.1816 -0.2756  0.8343
 1984SOL    HW1 7402   2.540   3.867   4.977 -2.0914  1.3351  4.3261
 1984SOL    HW2 7403   2.415   3.794   4.931  0.4294 -0.5860 -0.1070
 1985SOL     OW 7404   0.759   6.344   0.445 -0.1203 -0.4689  0.2516
 1985SOL    HW1 7405   0.685   6.349   0.384 -0.0210 -1.3609  0.0419
 1985SOL    HW2 7406   0.771   6.434   0.476 -1.8970 -0.4449  1.0051
 1986SOL     OW 7407   3.433   2.911   2.499  0.3282 -0.1831  0.1301
 1986SOL    HW1 7408   3.483   2.936   2.422 -0.2890 -1.5046 -0.7252
 1986SOL    HW2 7409   3.345   2.895   2.466  0.2110 -1.4102  0.9907
 1987SOL     OW 7410   2.664   1.360   1.851 -0.2351 -0.1925  0.4454
 1987SOL    HW1 7411   2.575   1.326   1.839 -0.1237  0.2430 -2.4310
 1987SOL    HW2 7412   2.656   1.423   1.922 -1.8625 -1.2802  1.3055
 1988SOL     OW 7413   6.810   7.036   2.551  0.0980 -0.1953  0.0211
 1988SOL    HW1 7414   6.734   7.088   2.523  0.4838 -0.4498 -1.5603
 1988SOL    HW2 7415   6.850   7.089   2.620 -0.5647  0.7339 -0.2791
 1989SOL     OW 7416   6.359   1.653   0.660 -1.0543 -0.1190 -0.1504
 1989SOL    HW1 7417   6.323   1.592   0.725 -1.7285 -0.3197 -0.6975
 1989SOL    HW2 7418   6.284   1.708   0.636  0.2766  3.5470  3.1172
 1990SOL     OW 7419   5.712   4.102   3.293  0.2925  0.1748  0.1499
 1990SOL    HW1 7420   5.693   4.182   3.244  1.3500  0.9739  0.9799
 1990SOL    HW2 7421   5.630   4.054   3.294 -0.0914  0.7634 -1.2499
 1991SOL     OW 7422   1.909   2.742   5.031  0.5722  0.5550 -0.0006
 1991SOL    HW1 7423   2.003   2.755   5.044  0.4200 -0.4210  2.6161
 1991SOL    HW2 7424   1.891   2.658   5.073 -1.8360  1.8175  1.7092
 1992SOL     OW 7425   0.858   4.430   0.852  0.3048  0.4106  0.1755
 1992SOL    HW1 7426   0.780   4.379   0.874  1.0289 -0.8301  0.0336
 1992SOL    HW2 7427   0.928   4.390   0.905  0.9576  1.0617 -0.1761
 1993SOL     OW 7428   1.689   3.778   1.714 -0.4212 -0.9030 -0.0887
 1993SOL    HW1 7429   1.636   3.850   1.682 -1.6240 -1.0257  1.5042
 1993SOL    HW2 7430   1.770   3.783   1.663 -0.4906  1.5147 -0.0821
 1994SOL     OW 7431   1.397   6.487   6.890  0.1575 -0.4658  0.1335
 1994SOL    HW1 7432   1.407   6.399   6.855  2.6012  0.8332 -2.9605
 1994SOL    HW2 7433   1.336   6.531   6.831  1.2640  0.7003 -0.1996
 1995SOL     OW 7434   3.906   2.971   1.995 -0.6144  0.0723 -0.3306
 1995SOL    HW1 7435   3.909   3.056   1.953  0.9383 -0.6394 -1.7636
 1995SOL    HW2 7436   3.853   2.917   1.937 -0.0285 -0.4177 -0.4246
 1996SOL     OW 7437   1.777   4.778   3.519 -0.4480 -0.2724 -0.0973
 1996SOL    HW1 7438   1.841   4.825   3.572 -0.7056 -0.2097  0.1607
 1996SOL    HW2 7439   1.784   4.687   3.549 -0.4959 -0.2614 -0.0531
 1997SOL     OW 7440   5.793   3.897   5.935  0.6313  0.0438 -0.0769
 1997SOL    HW1 7441   5.742   3.886   6.016  0.8181 -0.1112  0.0208
 1997SOL    HW2 7442   5.818   3.989   5.935 -1.0183  0.5405 -0.9413
 1998SOL     OW 7443   5.727   6.001   5.241  0.4622  0.1140  0.6696
 1998SOL    HW1 7444   5.759   5.913   5.262  1.0214  0.3164  0.6933
 1998SOL    HW2 7445   5.705   5.998   5.148 -2.2688 -0.8649  1.2588
 1999SOL     OW 7446   4.916   3.991   6.036 -0.1396 -0.2061 -0.9282
 1999SOL    HW1 7447   4.882   3.957   5.954 -2.5411 -0.2489  0.0015
 1999SOL    HW2 7448   4.900   3.921   6.100  2.7118 -0.6484 -0.5414
 2000SOL     OW 7449   0.670   2.810   2.701  0.1835 -0.3425  0.0246
 2000SOL    HW1 7450   0.661   2.724   2.742  0.2804 -2.3052 -3.6477
 2000SOL    HW2 7451   0.764   2.820   2.688  0.0899 -0.2077 -0.5416
 2001SOL     OW 7452   0.614   5.393   2.038  0.2439 -0.4230  0.6741
 2001SOL    HW1 7453   0.653   5.305   2.033  1.4508  0.1403 -1.4770
 2001SOL    HW2 7454   0.689   5.452   2.048  0.2797  0.7291 -3.9657
 2002SOL     OW 7455   4.691   6.626   4.831 -0.0533 -0.1845  0.3118
 2002SOL    HW1 7456   4.692   6.712   4.873  1.1346  0.1804 -0.4266
 2002SOL    HW2 7457   4.644   6.640   4.749  1.6054  0.2023 -0.6269
 2003SOL     OW 7458   4.399   1.352   5.316  0.1231 -0.2149  0.2864
 2003SOL    HW1 7459   4.473   1.377   5.372  0.8507 -2.8557  0.6487
 2003SOL    HW2 7460   4.345   1.296   5.372 -1.9279  1.2441 -0.1375
 2004SOL     OW 7461   3.420   5.412   1.247  0.3164  0.2452  0.3574
 2004SOL    HW1 7462   3.375   5.364   1.178  1.6227 -0.2103 -0.2200
 2004SOL    HW2 7463   3.457   5.488   1.202  1.9715 -0.5423  0.3077
 2005SOL     OW 7464   2.577   6.406   6.030  0.1255 -0.0721 -0.5249
 2005SOL    HW1 7465   2.608   6.352   5.958  1.2168  0.7352 -0.6943
 2005SOL    HW2 7466   2.578   6.495   5.995  2.8037  0.6604  1.0735
 2006SOL     OW 7467   0.991   2.355   5.184  0.1302  0.1301  0.5977
 2006SOL    HW1 7468   0.935   2.280   5.168  2.0849 -1.5288  1.0552
 2006SOL    HW2 7469   1.004   2.395   5.098  0.7486 -1.3670 -0.0394
 2007SOL     OW 7470   5.914   0.917   0.009 -0.3346  0.0995 -0.1043
 2007SOL    HW1 7471   5.944   0.836   0.049 -0.4956  0.3428  0.5271
 2007SOL    HW2 7472   5.941   0.986   0.070 -1.9896  0.3402  0.4101
 2008SOL     OW 7473   0.752   4.153   0.668  0.2734  0.1154 -0.5903
 2008SOL    HW1 7474   0.691   4.215   0.628  0.9552  2.1861  1.3331
 2008SOL    HW2 7475   0.725   4.067   0.635 -1.9338  1.2294 -1.9036
 2009SOL     OW 7476   6.732   4.667   6.104 -0.1510 -0.4550 -0.3436
 2009SOL    HW1 7477   6.760   4.719   6.029  1.0133 -0.8151 -0.1831
 2009SOL    HW2 7478   6.637   4.656   6.092 -0.4215  1.6302 -0.3873
 2010SOL     OW 7479   3.274   4.168   4.351  0.2597  0.5699 -0.2905
 2010SOL    HW1 7480   3.336   4.153   4.279  0.2865 -0.6736 -0.0379
 2010SOL    HW2 7481   3.286   4.260   4.374  1.3788  0.5877 -0.8367
 2011SOL     OW 7482   4.256   6.539   6.511 -0.0975  0.4543 -0.6702
 2011SOL    HW1 7483   4.176   6.528   6.460  0.2991 -0.2450 -1.1573
 2011SOL    HW2 7484   4.325   6.552   6.445  0.3475  0.0146 -0.3008
 2012SOL     OW 7485   4.220   6.895   6.344  0.3952  0.0623  0.4748
 2012SOL    HW1 7486   4.210   6.923   6.435  0.7362  1.3167  0.1511
 2012SOL    HW2 7487   4.314   6.907   6.326  0.1264  0.9994 -0.3935
 2013SOL     OW 7488   5.274   0.050   5.335 -0.1576  0.1012 -0.0982
 2013SOL    HW1 7489   5.224   0.068   5.414  1.0422  3.1596  0.0765
 2013SOL    HW2 7490   5.209   0.013   5.274 -1.5211 -0.4821  1.6231
 2014SOL     OW 7491   3.279   4.719   0.351  0.6580 -0.5160 -0.7047
 2014SOL    HW1 7492   3.222   4.727   0.275  0.9319  2.2929 -0.7125
 2014SOL    HW2 7493   3.244   4.644   0.400 -1.0167 -0.8518 -2.3149
 2015SOL     OW 7494   1.252   0.888   4.968  0.2334 -0.3760  0.0202
 2015SOL    HW1 7495   1.203   0.939   4.904 -0.4562 -1.3063 -0.2046
 2015SOL    HW2 7496   1.280   0.810   4.920 -0.2509 -1.0607  0.8262
 2016SOL     OW 7497   1.282   4.839   5.063  0.1231 -0.0929  0.0925
 2016SOL    HW1 7498   1.308   4.765   5.008  0.2643  0.6257 -0.8538
 2016SOL    HW2 7499   1.307   4.916   5.011  0.7769  0.6268  1.4219
 2017SOL     OW 7500   3.922   6.450   6.657 -0.0071  0.1700  0.3467
 2017SOL    HW1 7501   3.968   6.375   6.621  0.2054 -0.1872  1.3272
 2017SOL    HW2 7502   3.989   6.497   6.707  0.0202  1.3806 -0.7655
 2018SOL     OW 7503   3.477   5.466   3.388 -0.4780  0.2145 -0.1096
 2018SOL    HW1 7504   3.425   5.408   3.443 -0.3564 -0.6391 -0.8718
 2018SOL    HW2 7505   3.462   5.554   3.423 -0.1355 -0.3437  1.4934
 2019SOL     OW 7506   0.706   0.782   4.745  0.1873  0.2309  0.2022
 2019SOL    HW1 7507   0.679   0.871   4.725 -0.2774  0.5363  2.0297
 2019SOL    HW2 7508   0.669   0.764   4.831  0.4213 -1.6707 -0.0522
 2020SOL     OW 7509   3.277   4.468   4.819  0.2707  0.0813 -0.3525
 2020SOL    HW1 7510   3.324   4.385   4.810  0.2373  0.1432 -1.1831
 2020SOL    HW2 7511   3.231   4.461   4.903  0.5378 -0.6005 -0.2596
 2021SOL     OW 7512   5.581   0.622   5.485 -0.6719 -0.1220  0.1336
 2021SOL    HW1 7513   5.610   0.634   5.575 -1.5172  0.0682  0.3897
 2021SOL    HW2 7514   5.635   0.551   5.451 -0.7679 -0.6156  0.9927
 2022SOL     OW 7515   4.110   1.963   3.802  0.6132 -0.3315  0.7625
 2022SOL    HW1 7516   4.200   1.935   3.786  0.8228  0.3973  0.6290
 2022SOL    HW2 7517   4.065   1.884   3.831  1.5933 -0.4320  2.0895
 2023SOL     OW 7518   4.739   4.883   4.881 -0.5420 -0.1465  0.2614
 2023SOL    HW1 7519   4.784   4.814   4.929  1.5917  1.0850  0.1361
 2023SOL    HW2 7520   4.662   4.903   4.936 -0.4057 -1.5701  1.0305
 2024SOL     OW 7521   6.761   4.244   1.501  0.1857  0.3146  0.7541
 2024SOL    HW1 7522   6.685   4.255   1.443 -0.2700 -4.3715  0.0342
 2024SOL    HW2 7523   6.723   4.239   1.589  0.0440  0.7126  0.7194
 2025SOL     OW 7524   1.079   3.840   0.729 -0.3394  0.2338 -0.0666
 2025SOL    HW1 7525   1.135   3.914   0.709 -0.2966 -0.0238 -0.9501
 2025SOL    HW2 7526   1.005   3.848   0.668  1.2068 -2.1576 -2.4835
 2026SOL     OW 7527   3.655   3.090   3.082  0.2116  0.0367  0.3776
 2026SOL    HW1 7528   3.624   3.128   3.000 -0.5377  0.3098  0.7720
 2026SOL    HW2 7529   3.708   3.016   3.056 -0.5543 -0.2761 -0.3455
 2027SOL     OW 7530   2.004   0.978   5.041  0.6185 -0.2566 -0.2011
 2027SOL    HW1 7531   1.940   0.913   5.013  2.5228 -0.9650 -3.3026
 2027SOL    HW2 7532   2.007   1.041   4.969 -0.8118  3.2223  2.4540
 2028SOL     OW 7533   1.262   1.846   0.168 -0.3325 -0.2482 -0.3244
 2028SOL    HW1 7534   1.315   1.864   0.090 -0.3447 -0.9882 -0.5139
 2028SOL    HW2 7535   1.251   1.931   0.210  0.4359  0.0211 -0.6482
 2029SOL     OW 7536   6.790   2.687   0.192 -0.9095 -0.0596 -0.7263
 2029SOL    HW1 7537   6.815   2.596   0.210  0.2642  0.4467  0.3081
 2029SOL    HW2 7538   6.815   2.735   0.271 -1.2881  1.2119 -1.3557
 2030SOL     OW 7539   0.256   2.763   1.094  0.1504 -0.3426  0.0529
 2030SOL    HW1 7540   0.298   2.747   1.179  0.4651 -1.2651 -0.2703
 2030SOL    HW2 7541   0.327   2.787   1.036 -0.2402  1.8157  0.3845
 2031SOL     OW 7542   2.209   0.485   1.445  0.0940  0.5199  0.6200
 2031SOL    HW1 7543   2.178   0.400   1.412  1.6887  0.1331  0.0336
 2031SOL    HW2 7544   2.131   0.525   1.483 -1.2636 -0.1592 -1.2706
 2032SOL     OW 7545   4.820   3.099   1.536  0.5675 -0.3958  0.6446
 2032SOL    HW1 7546   4.803   3.029   1.474  0.7217 -0.8159  1.0757
 2032SOL    HW2 7547   4.779   3.176   1.497  0.3473 -0.7383  0.1997
 2033SOL     OW 7548   6.598   1.634   1.297  0.2449  0.0322 -0.4269
 2033SOL    HW1 7549   6.689   1.609   1.284  0.6619  1.7632 -1.0024
 2033SOL    HW2 7550   6.578   1.694   1.225 -1.1199  0.2929  0.1267
 2034SOL     OW 7551   5.512   3.926   2.316 -0.0074  0.2625 -0.8698
 2034SOL    HW1 7552   5.558   4.009   2.313 -1.1769  1.2599  2.8663
 2034SOL    HW2 7553   5.432   3.940   2.265 -0.6380  1.8684  0.4639
 2035SOL     OW 7554   1.697   5.199   3.712 -0.1970  0.2483  0.1202
 2035SOL    HW1 7555   1.674   5.291   3.703 -2.2793 -0.2583 -0.1667
 2035SOL    HW2 7556   1.782   5.191   3.668 -0.1658  1.9492 -0.1733
 2036SOL     OW 7557   0.505   2.467   2.322  0.7273  0.3743 -0.4856
 2036SOL    HW1 7558   0.586   2.464   2.271  1.5073  1.0257  0.6543
 2036SOL    HW2 7559   0.481   2.559   2.324  0.8365  0.3969  0.4760
 2037SOL     OW 7560   4.854   1.110   4.942 -0.3345 -0.4119 -0.3429
 2037SOL    HW1 7561   4.814   1.045   5.000  0.1913  0.7140  1.3528
 2037SOL    HW2 7562   4.796   1.114   4.866 -2.3934 -0.2007  1.1774
 2038SOL     OW 7563   1.279   5.802   4.924 -0.2438  0.3169 -0.5278
 2038SOL    HW1 7564   1.210   5.774   4.984 -0.1079 -1.3549 -1.1077
 2038SOL    HW2 7565   1.237   5.867   4.868 -0.9308  0.3896  0.0555
 2039SOL     OW 7566   0.416   0.140   3.792 -0.0384 -0.1761 -0.0715
 2039SOL    HW1 7567   0.378   0.219   3.830 -0.8464 -1.5780  2.2911
 2039SOL    HW2 7568   0.478   0.110   3.858  0.7337 -1.1853 -1.2109
 2040SOL     OW 7569   1.457   5.535   2.327  0.0901 -0.7593  0.0873
 2040SOL    HW1 7570   1.513   5.606   2.357  0.2190 -0.6391 -0.4351
 2040SOL    HW2 7571   1.482   5.460   2.382 -0.4527 -0.2641  1.0480
 2041SOL     OW 7572   4.158   0.272   0.538  0.3545 -0.1635 -0.2819
 2041SOL    HW1 7573   4.214   0.204   0.500  1.5427  0.3884  0.4160
 2041SOL    HW2 7574   4.100   0.298   0.467  2.9903  1.3673 -2.0972
 2042SOL     OW 7575   5.198   5.827   0.863  0.0341  0.3501  0.2182
 2042SOL    HW1 7576   5.257   5.786   0.801  0.7532  0.7092  0.6501
 2042SOL    HW2 7577   5.254   5.883   0.917 -0.6932  0.6914  0.6460
 2043SOL     OW 7578   2.140   1.085   6.914  0.1100  0.4399  0.4104
 2043SOL    HW1 7579   2.113   1.158   6.858 -2.5190 -0.9401 -0.2559
 2043SOL    HW2 7580   2.101   1.008   6.873  1.1949 -1.1032  2.1547
 2044SOL     OW 7581   5.392   2.003   1.253  0.9305 -0.6110  0.1779
 2044SOL    HW1 7582   5.366   2.092   1.275 -0.2309 -0.7861 -0.4283
 2044SOL    HW2 7583   5.461   2.013   1.188  0.6065 -0.1586 -0.0971
 2045SOL     OW 7584   2.471   3.530   0.804  0.5745  0.1861 -0.1033
 2045SOL    HW1 7585   2.490   3.621   0.782 -0.8282  0.5195 -0.0455
 2045SOL    HW2 7586   2.389   3.534   0.853  0.3435 -1.1255 -0.3483
 2046SOL     OW 7587   1.714   3.480   4.191  0.3049  0.4720  0.1382
 2046SOL    HW1 7588   1.792   3.428   4.172 -0.1752  0.2368 -1.2840
 2046SOL    HW2 7589   1.662   3.423   4.249 -0.0362 -0.5039 -1.0898
 2047SOL     OW 7590   0.680   3.212   4.556  0.7046 -0.4104 -0.0436
 2047SOL    HW1 7591   0.721   3.258   4.629  0.9265 -0.8815  0.1305
 2047SOL    HW2 7592   0.614   3.273   4.523  0.7020 -0.1396  0.4580
 2048SOL     OW 7593   2.426   1.910   3.440 -0.4601  0.1531  0.5793
 2048SOL    HW1 7594   2.476   1.990   3.431  0.7760 -0.6612 -0.0275
 2048SOL    HW2 7595   2.455   1.854   3.368  0.1403 -1.5769  2.0639
 2049SOL     OW 7596   5.669   5.695   4.385 -0.4903 -0.5289  0.0804
 2049SOL    HW1 7597   5.673   5.790   4.376 -1.8033 -0.1647  2.4439
 2049SOL    HW2 7598   5.590   5.669   4.339  0.0587 -0.5579 -0.8741
 2050SOL     OW 7599   2.290   4.393   2.343  0.4819 -0.0443 -0.3631
 2050SOL    HW1 7600   2.359   4.430   2.289 -1.5267  0.1538 -3.0257
 2050SOL    HW2 7601   2.211   4.441   2.317 -0.9284 -1.2922  1.3832
 2051SOL     OW 7602   2.704   3.483   3.968  0.2655  0.3748 -0.0484
 2051SOL    HW1 7603   2.732   3.482   3.877  0.9952 -1.2715  0.1655
 2051SOL    HW2 7604   2.727   3.397   4.002 -2.8085 -0.2320  0.8523
 2052SOL     OW 7605   0.967   2.137   0.641  0.4197 -0.2470  0.0049
 2052SOL    HW1 7606   0.943   2.190   0.718 -2.4626 -1.7270  0.2632
 2052SOL    HW2 7607   0.897   2.072   0.634  1.3830 -1.1206 -3.0213
 2053SOL     OW 7608   3.491   5.445   2.586 -0.1636 -0.2643 -0.4144
 2053SOL    HW1 7609   3.451   5.493   2.659  1.3812  2.2366 -1.0953
 2053SOL    HW2 7610   3.583   5.438   2.609  0.1004 -0.6353 -1.5245
 2054SOL     OW 7611   5.330   3.622   5.065 -0.6084 -0.1068 -0.5767
 2054SOL    HW1 7612   5.364   3.710   5.049  1.2305 -1.1235 -2.8980
 2054SOL    HW2 7613   5.385   3.586   5.134  0.0453 -0.1365 -1.1024
 2055SOL     OW 7614   3.267   1.486   2.538  0.3869  0.1805 -0.2836
 2055SOL    HW1 7615   3.226   1.514   2.456  0.3219  0.2450 -0.2296
 2055SOL    HW2 7616   3.345   1.540   2.547  0.5969 -0.0863 -0.4909
 2056SOL     OW 7617   3.457   6.145   3.547  0.4741  0.2637  0.3341
 2056SOL    HW1 7618   3.520   6.085   3.506  1.1084  0.3074  1.2204
 2056SOL    HW2 7619   3.462   6.124   3.640 -0.7894  0.3184  0.4210
 2057SOL     OW 7620   0.187   0.385   6.556 -0.2096 -0.0349  0.1331
 2057SOL    HW1 7621   0.279   0.402   6.575  0.8177 -2.8906 -1.6947
 2057SOL    HW2 7622   0.169   0.437   6.477  0.0381 -0.0182  0.0872
 2058SOL     OW 7623   3.215   0.445   3.181  0.0126 -0.0679 -0.5238
 2058SOL    HW1 7624   3.265   0.372   3.145  1.8611  0.1417  1.4183
 2058SOL    HW2 7625   3.143   0.405   3.228  1.1583 -0.7172  0.7453
 2059SOL     OW 7626   0.857   3.085   3.726 -0.1882 -0.4187 -0.3067
 2059SOL    HW1 7627   0.825   3.059   3.813 -0.0695 -1.8164 -0.6579
 2059SOL    HW2 7628   0.944   3.121   3.743  1.8816 -4.7682 -0.1570
 2060SOL     OW 7629   5.136   5.181   5.507 -0.2206 -0.2414 -0.3798
 2060SOL    HW1 7630   5.223   5.142   5.500  0.3865  0.5462  1.9143
 2060SOL    HW2 7631   5.076   5.107   5.510  0.2053 -0.7913 -2.8333
 2061SOL     OW 7632   6.731   4.693   0.787 -0.2242  0.0704  0.3471
 2061SOL    HW1 7633   6.714   4.689   0.881  0.6853  1.8764  0.6382
 2061SOL    HW2 7634   6.654   4.737   0.750  0.5962  1.8781  0.6793
 2062SOL     OW 7635   4.219   2.716   1.215  0.5657 -0.4547 -0.1974
 2062SOL    HW1 7636   4.296   2.758   1.176  0.9384 -1.4168 -0.5558
 2062SOL    HW2 7637   4.229   2.623   1.191 -1.0688 -0.4869 -0.8262
 2063SOL     OW 7638   3.328   2.384   1.959  0.4579 -0.0487 -0.6159
 2063SOL    HW1 7639   3.295   2.390   1.869 -4.3711  1.2692  0.9248
 2063SOL    HW2 7640   3.378   2.465   1.971 -0.2037  0.5639 -1.7037
 2064SOL     OW 7641   4.449   6.266   1.105  0.8349  0.0898 -0.8421
 2064SOL    HW1 7642   4.527   6.246   1.155  0.9103  0.9967 -0.5713
 2064SOL    HW2 7643   4.476   6.259   1.014  0.5297 -2.2119 -0.8100
 2065SOL     OW 7644   7.105   3.017   0.808 -0.1571 -0.3194 -0.2667
 2065SOL    HW1 7645   7.197   3.029   0.787 -0.2788 -0.9274 -1.2292
 2065SOL    HW2 7646   7.103   3.005   0.903  0.9777 -2.0847 -0.4104
 2066SOL     OW 7647   6.633   6.360   3.323 -0.1480  0.1261 -0.2013
 2066SOL    HW1 7648   6.703   6.425   3.326  1.6276 -1.7252  1.0966
 2066SOL    HW2 7649   6.595   6.361   3.410 -0.0645 -0.5728 -0.1472
 2067SOL     OW 7650   0.583   2.994   2.871 -0.4096 -0.1352  0.1088
 2067SOL    HW1 7651   0.610   2.916   2.822  0.2237  0.6935 -0.9083
 2067SOL    HW2 7652   0.631   3.066   2.830 -1.0036  0.8057  1.0066
 2068SOL     OW 7653   3.303   3.095   0.228  0.2893 -0.5011 -0.2089
 2068SOL    HW1 7654   3.383   3.111   0.277  0.2130  2.5319 -0.8625
 2068SOL    HW2 7655   3.310   3.153   0.151 -2.7814  0.4549  0.0880
 2069SOL     OW 7656   0.205   1.754   2.778  0.4250  0.5275  0.8947
 2069SOL    HW1 7657   0.281   1.811   2.772 -0.4305  1.6636  0.5399
 2069SOL    HW2 7658   0.227   1.692   2.848  2.2449 -0.0846 -0.1657
 2070SOL     OW 7659   0.839   5.885   3.820  0.2524 -0.4358  0.3174
 2070SOL    HW1 7660   0.840   5.867   3.914  1.2911 -0.4076  0.3161
 2070SOL    HW2 7661   0.764   5.943   3.807  1.0281  0.8484  1.3721
 2071SOL     OW 7662   0.084   7.013   2.938  0.2226  0.4163 -0.5242
 2071SOL    HW1 7663   0.071   7.057   3.022 -1.7534  0.1844 -0.6631
 2071SOL    HW2 7664   0.073   6.920   2.958 -1.2689  0.4264 -1.1706
 2072SOL     OW 7665   4.877   5.389   6.983  0.5881 -0.0397 -0.2036
 2072SOL    HW1 7666   4.813   5.424   7.044  0.3839  0.0264 -0.4531
 2072SOL    HW2 7667   4.918   5.316   7.030 -0.2265 -0.5949 -0.3286
 2073SOL     OW 7668   3.905   4.511   3.630  0.4867 -0.2269 -0.0192
 2073SOL    HW1 7669   3.920   4.487   3.721  0.5054  0.7787  0.2466
 2073SOL    HW2 7670   3.850   4.589   3.634 -0.7988 -1.0539 -0.9035
 2074SOL     OW 7671   6.743   0.242   1.394 -0.6073  0.0715  0.1450
 2074SOL    HW1 7672   6.652   0.227   1.420 -0.4355  0.4709  0.9983
 2074SOL    HW2 7673   6.788   0.265   1.475  0.0210  0.9814 -0.4374
 2075SOL     OW 7674   1.953   0.623   6.174 -0.0075 -0.0808  0.3074
 2075SOL    HW1 7675   1.949   0.572   6.255 -2.1689 -2.8067 -1.3295
 2075SOL    HW2 7676   1.870   0.671   6.172 -0.2497 -0.5247 -0.5637
 2076SOL     OW 7677   3.976   1.085   3.926 -0.0821  0.1592  0.8643
 2076SOL    HW1 7678   3.901   1.025   3.931 -0.3853  0.5819  1.5391
 2076SOL    HW2 7679   3.937   1.171   3.910  0.2119  0.4693  1.7504
 2077SOL     OW 7680   7.099   4.582   5.434  0.1471 -0.1628  0.2048
 2077SOL    HW1 7681   7.065   4.552   5.350 -0.2011  1.2903 -0.2020
 2077SOL    HW2 7682   7.151   4.508   5.467 -1.2064 -1.4388 -0.4055
 2078SOL     OW 7683   1.174   0.393   2.949  0.5964  0.2877 -0.4582
 2078SOL    HW1 7684   1.087   0.419   2.920  0.8875  2.0278  0.1099
 2078SOL    HW2 7685   1.184   0.304   2.918 -1.4182  0.0179 -0.4633
 2079SOL     OW 7686   0.072   4.843   6.231 -0.4092  0.4314  0.1726
 2079SOL    HW1 7687   0.074   4.753   6.264 -1.0646  0.4520  0.2716
 2079SOL    HW2 7688  -0.021   4.864   6.224 -0.2957  0.5462 -1.3750
 2080SOL     OW 7689   6.323   3.140   4.199  0.2303  0.9370 -0.4607
 2080SOL    HW1 7690   6.399   3.105   4.152  0.0412  2.1786 -1.7595
 2080SOL    HW2 7691   6.314   3.230   4.168 -2.2869  0.5796 -1.0304
 2081SOL     OW 7692   6.685   5.902   1.817  0.1897  0.6293 -0.0737
 2081SOL    HW1 7693   6.686   5.816   1.776  0.4140  0.1863  0.8481
 2081SOL    HW2 7694   6.778   5.927   1.823  0.1295  0.9178 -0.2908
 2082SOL     OW 7695   1.727   6.914   4.155  0.2704 -0.6877 -0.1265
 2082SOL    HW1 7696   1.787   6.987   4.144 -0.2719 -0.1673  0.3160
 2082SOL    HW2 7697   1.779   6.847   4.199  1.0379 -0.9421 -1.3781
 2083SOL     OW 7698   2.708   6.289   5.803  0.6345 -0.1147 -0.1610
 2083SOL    HW1 7699   2.681   6.370   5.758 -1.6134 -1.5116 -1.5159
 2083SOL    HW2 7700   2.776   6.252   5.748 -0.4365 -0.6083 -1.1994
 2084SOL     OW 7701   2.816   5.233   4.229  0.7471  0.0271  0.2667
 2084SOL    HW1 7702   2.870   5.189   4.164  1.5371 -1.3203  1.7654
 2084SOL    HW2 7703   2.877   5.290   4.276  0.6185 -0.4980  1.0942
 2085SOL     OW 7704   5.386   0.318   1.128  0.1263 -0.0385 -0.0464
 2085SOL    HW1 7705   5.463   0.288   1.081  2.1479  3.4434  0.6903
 2085SOL    HW2 7706   5.333   0.363   1.062  0.9840  1.3800  0.1921
 2086SOL     OW 7707   5.726   4.477   1.778  0.2162  0.2246  0.3297
 2086SOL    HW1 7708   5.644   4.438   1.748  0.2242 -1.4413  2.2402
 2086SOL    HW2 7709   5.720   4.569   1.754 -1.5142 -0.1882 -0.9623
 2087SOL     OW 7710   0.181   6.645   1.342  0.0465  0.3946 -0.3484
 2087SOL    HW1 7711   0.241   6.658   1.269  0.4659  1.1568  0.1298
 2087SOL    HW2 7712   0.137   6.562   1.322  1.0618 -0.0411 -0.8254
 2088SOL     OW 7713   6.981   6.112   3.598 -0.3027  0.6301 -0.1468
 2088SOL    HW1 7714   6.900   6.122   3.547 -0.2216 -1.5174 -0.7662
 2088SOL    HW2 7715   6.951   6.107   3.689 -0.6404  2.0603 -0.1465
 2089SOL     OW 7716   4.518   5.288   4.151 -0.2876 -0.4766 -0.1584
 2089SOL    HW1 7717   4.428   5.309   4.177  0.7687  0.7708  2.9841
 2089SOL    HW2 7718   4.526   5.194   4.168 -0.8559 -0.5222 -0.1037
 2090SOL     OW 7719   5.228   4.198   2.719 -0.2035 -0.1588  0.6613
 2090SOL    HW1 7720   5.264   4.224   2.634 -1.4341  0.4085  0.2825
 2090SOL    HW2 7721   5.202   4.107   2.707  1.6601 -0.7905  1.1502
 2091SOL     OW 7722   3.639   0.759   1.190  0.3307 -0.0103 -0.0925
 2091SOL    HW1 7723   3.640   0.850   1.217 -0.5627  0.6484 -2.0338
 2091SOL    HW2 7724   3.565   0.753   1.130  3.0987 -0.7648 -3.8398
 2092SOL     OW 7725   3.571   4.548   3.604 -0.6259  0.2331 -0.2342
 2092SOL    HW1 7726   3.513   4.612   3.647  1.4044  1.3357  1.0045
 2092SOL    HW2 7727   3.658   4.586   3.612  0.3435 -1.5423 -1.7410
 2093SOL     OW 7728   2.569   5.468   6.023  0.2104 -0.3178 -0.6548
 2093SOL    HW1 7729   2.540   5.474   6.114  1.9726  0.6663 -0.1115
 2093SOL    HW2 7730   2.491   5.491   5.971  0.1254  3.1042  0.7422
 2094SOL     OW 7731   0.016   2.949   1.074 -0.1016  0.1654 -0.8710
 2094SOL    HW1 7732   0.032   2.923   1.164 -0.5054  1.8354 -0.2820
 2094SOL    HW2 7733   0.077   2.896   1.022 -0.4095 -1.3862  0.2714
 2095SOL     OW 7734   6.153   6.900   2.980  0.0356 -0.0227  0.2683
 2095SOL    HW1 7735   6.241   6.862   2.983  0.1740  0.3589  1.4697
 2095SOL    HW2 7736   6.167   6.994   2.984 -0.3859  0.0922 -0.8135
 2096SOL     OW 7737   4.975   5.803   3.721  1.0649  0.6541 -0.2879
 2096SOL    HW1 7738   4.994   5.811   3.628 -1.8298 -0.6128 -1.0926
 2096SOL    HW2 7739   4.914   5.874   3.739 -0.7286 -0.8440 -0.1513
 2097SOL     OW 7740   5.228   3.822   4.132  0.2708  0.0064 -0.3730
 2097SOL    HW1 7741   5.153   3.764   4.122  0.8291 -0.3741 -3.1177
 2097SOL    HW2 7742   5.200   3.905   4.094  0.6567  0.4384  0.2580
 2098SOL     OW 7743   0.297   5.673   6.488  0.0699  0.0125 -0.6257
 2098SOL    HW1 7744   0.278   5.733   6.416  1.8800  1.0098 -0.3232
 2098SOL    HW2 7745   0.374   5.625   6.459  0.7242  0.3034  0.5556
 2099SOL     OW 7746   3.371   4.347   0.377  0.7201 -1.2539 -0.0324
 2099SOL    HW1 7747   3.292   4.335   0.430  0.2857  4.6751  1.3317
 2099SOL    HW2 7748   3.440   4.367   0.440  1.0485  2.3807 -1.3181
 2100SOL     OW 7749   0.953   3.100   3.049 -0.4182  0.2002  0.2455
 2100SOL    HW1 7750   0.995   3.156   3.114  0.7049  0.2465 -0.5000
 2100SOL    HW2 7751   0.924   3.161   2.981 -0.2036  0.0010 -0.0263
 2101SOL     OW 7752   4.343   3.571   0.645 -0.3721 -0.1810 -0.5953
 2101SOL    HW1 7753   4.356   3.568   0.740 -0.1445 -1.0130 -0.6424
 2101SOL    HW2 7754   4.430   3.552   0.608 -0.3943  0.4320 -0.9757
 2102SOL     OW 7755   3.121   3.252   2.589 -0.0396  0.6053  0.6685
 2102SOL    HW1 7756   3.087   3.323   2.535 -0.0982  0.5956  0.6922
 2102SOL    HW2 7757   3.043   3.200   2.611  0.0727  0.2504  0.2413
 2103SOL     OW 7758   0.900   2.443   1.959 -0.2397 -0.0938  0.3626
 2103SOL    HW1 7759   0.809   2.472   1.968 -0.6690 -0.6584 -1.5956
 2103SOL    HW2 7760   0.922   2.404   2.044 -1.9588 -0.2856  0.7474
 2104SOL     OW 7761   0.845   6.374   0.138  0.6408  0.3506  0.2372
 2104SOL    HW1 7762   0.913   6.340   0.080  0.7846  0.6598  0.2183
 2104SOL    HW2 7763   0.854   6.324   0.218  1.1748  0.6771  0.3893
 2105SOL     OW 7764   0.664   5.789   3.123 -0.2922 -0.1292 -0.1645
 2105SOL    HW1 7765   0.746   5.815   3.165 -1.4670  1.5332  1.2345
 2105SOL    HW2 7766   0.649   5.857   3.057  0.4025 -1.5015 -1.7860
 2106SOL     OW 7767   0.584   2.029   1.740  0.2109  0.4648  0.1181
 2106SOL    HW1 7768   0.655   2.093   1.744  0.5916  0.0592 -0.0325
 2106SOL    HW2 7769   0.611   1.960   1.800 -0.2860  0.5347  0.4170
 2107SOL     OW 7770   4.187   5.935   3.134  0.0124 -0.5403  0.1831
 2107SOL    HW1 7771   4.283   5.937   3.137 -0.0233  1.2514  1.2179
 2107SOL    HW2 7772   4.160   5.943   3.226 -1.1700 -3.8143  0.2552
 2108SOL     OW 7773   4.822   4.587   6.133 -0.1777  0.1344 -0.6854
 2108SOL    HW1 7774   4.799   4.613   6.044  2.3208 -0.3697 -1.5697
 2108SOL    HW2 7775   4.892   4.647   6.158  0.6682 -1.0917  0.0403
 2109SOL     OW 7776   4.157   3.357   4.597 -0.1978  0.6059 -0.5089
 2109SOL    HW1 7777   4.250   3.355   4.617 -0.2610  0.6055 -0.2110
 2109SOL    HW2 7778   4.117   3.402   4.671 -0.2861  1.7342 -1.2183
 2110SOL     OW 7779   5.054   5.946   1.097 -0.7285  0.8966  0.2952
 2110SOL    HW1 7780   5.042   6.034   1.132  1.2405  1.6131 -0.7063
 2110SOL    HW2 7781   5.067   5.960   1.003 -0.1839 -0.4485  0.1552
 2111SOL     OW 7782   3.307   7.106   6.080 -0.0920  0.2884  0.2435
 2111SOL    HW1 7783   3.231   7.054   6.054  1.1372 -1.4137 -0.0732
 2111SOL    HW2 7784   3.351   7.127   5.997 -0.8248  2.3277  0.3136
 2112SOL     OW 7785   6.302   0.383   2.456 -0.4433  0.0620 -0.2170
 2112SOL    HW1 7786   6.267   0.403   2.369  0.0716  0.3343 -0.3679
 2112SOL    HW2 7787   6.356   0.460   2.478  0.3680 -0.5120 -0.1583
 2113SOL     OW 7788   3.226   7.109   2.460 -0.3483  0.3529 -1.1582
 2113SOL    HW1 7789   3.303   7.059   2.432 -0.7343 -0.1441 -1.3494
 2113SOL    HW2 7790   3.262   7.185   2.505  0.2641  0.3411 -1.6132
 2114SOL     OW 7791   0.748   2.687   6.130 -0.1354 -0.3190 -0.1840
 2114SOL    HW1 7792   0.713   2.639   6.205  1.3639 -0.4941  0.4439
 2114SOL    HW2 7793   0.842   2.673   6.135 -0.0770 -1.7658 -3.0906
 2115SOL     OW 7794   2.665   0.688   4.086  0.0022  0.4423 -0.4983
 2115SOL    HW1 7795   2.696   0.776   4.109 -1.3822  0.5761  1.0416
 2115SOL    HW2 7796   2.735   0.630   4.117 -0.2193  0.8720  0.9067
 2116SOL     OW 7797   4.576   7.011   5.477  0.5894 -0.1735 -0.2686
 2116SOL    HW1 7798   4.501   7.010   5.536  1.2257  0.0301  0.5669
 2116SOL    HW2 7799   4.570   6.928   5.429 -0.9563  0.4775 -1.2741
 2117SOL     OW 7800   2.188   0.808   4.617  0.2103  0.6819  0.0451
 2117SOL    HW1 7801   2.233   0.892   4.628 -0.4527  1.0908 -0.3776
 2117SOL    HW2 7802   2.096   0.826   4.637  0.0014  0.1293 -0.3901
 2118SOL     OW 7803   4.482   5.198   1.064  0.2471 -0.2294  0.2012
 2118SOL    HW1 7804   4.575   5.206   1.044  0.0077  1.1412 -0.4874
 2118SOL    HW2 7805   4.479   5.173   1.157  1.2842  1.2169  0.6564
 2119SOL     OW 7806   0.174   3.958   2.364 -0.0313  0.7124 -0.1043
 2119SOL    HW1 7807   0.094   3.988   2.320  0.3967  0.0957 -1.3224
 2119SOL    HW2 7808   0.143   3.925   2.448 -0.7411  2.8658  0.5644
 2120SOL     OW 7809   0.398   2.839   2.589  0.2777  0.1436  0.0762
 2120SOL    HW1 7810   0.483   2.840   2.633  0.6802 -0.4468 -0.6659
 2120SOL    HW2 7811   0.419   2.841   2.496 -0.5653  2.1631 -0.1450
 2121SOL     OW 7812   6.267   0.459   3.045 -0.2868 -0.4579  0.4505
 2121SOL    HW1 7813   6.266   0.554   3.058  0.6840 -0.3109 -0.3989
 2121SOL    HW2 7814   6.221   0.446   2.962  1.0066 -0.5623 -0.2683
 2122SOL     OW 7815   5.609   3.906   0.219 -0.0656 -0.3908 -0.2011
 2122SOL    HW1 7816   5.534   3.931   0.165 -0.8637  2.3289  1.9375
 2122SOL    HW2 7817   5.613   3.973   0.287  3.5500 -1.1680  0.5672
 2123SOL     OW 7818   3.307   4.656   0.899 -0.4534 -0.4787  0.4003
 2123SOL    HW1 7819   3.318   4.749   0.922  1.0578 -0.1101 -1.5948
 2123SOL    HW2 7820   3.279   4.657   0.808  0.4967 -2.0034  0.0692
 2124SOL     OW 7821   0.955   3.860   5.385  0.1396 -0.0432  0.0532
 2124SOL    HW1 7822   0.874   3.809   5.376  0.5030 -0.5506 -0.4053
 2124SOL    HW2 7823   0.990   3.832   5.470 -0.3155  0.4044  0.3946
 2125SOL     OW 7824   0.322   3.046   1.259 -0.9478  0.2140  0.1922
 2125SOL    HW1 7825   0.315   2.972   1.319 -0.1532  0.6325  0.8347
 2125SOL    HW2 7826   0.358   3.008   1.179 -1.1908 -0.2116  0.2811
 2126SOL     OW 7827   3.233   4.578   5.750 -0.0439  0.0974  0.6315
 2126SOL    HW1 7828   3.162   4.515   5.737 -0.1858  0.0706  1.4835
 2126SOL    HW2 7829   3.194   4.663   5.734 -0.1331  0.0456  0.5760
 2127SOL     OW 7830   6.455   5.582   5.448  0.2565 -0.2014  0.0704
 2127SOL    HW1 7831   6.529   5.530   5.480  0.6754 -0.7028 -1.6494
 2127SOL    HW2 7832   6.476   5.602   5.357 -1.6854 -0.2698 -0.4460
 2128SOL     OW 7833   4.059   6.904   4.380  0.0110 -0.0048  0.7515
 2128SOL    HW1 7834   3.974   6.916   4.422 -0.5466  0.5598 -0.5033
 2128SOL    HW2 7835   4.053   6.952   4.298  1.0240 -1.1747 -0.0550
 2129SOL     OW 7836   3.628   0.969   6.235 -0.4159 -0.5364 -0.4245
 2129SOL    HW1 7837   3.643   0.968   6.330 -1.2092 -1.5029 -0.2902
 2129SOL    HW2 7838   3.554   1.029   6.224 -0.3328 -0.4351 -0.4358
 2130SOL     OW 7839   0.412   6.243   6.858 -0.5839  0.5709 -0.3486
 2130SOL    HW1 7840   0.467   6.228   6.781 -1.0672 -2.1099 -0.2648
 2130SOL    HW2 7841   0.323   6.226   6.826 -1.2437  3.1357 -0.0566
 2131SOL     OW 7842   2.126   5.478   4.920 -0.1039 -0.3464 -0.3070
 2131SOL    HW1 7843   2.139   5.416   4.849  1.1304 -0.6434  0.1553
 2131SOL    HW2 7844   2.072   5.431   4.984  0.3270 -0.7375 -0.2274
 2132SOL     OW 7845   2.919   2.373   3.147 -0.0403  0.6078  0.5356
 2132SOL    HW1 7846   2.889   2.461   3.166  1.8837  2.1432 -2.6716
 2132SOL    HW2 7847   3.003   2.366   3.194  0.6186  1.1860 -0.5138
 2133SOL     OW 7848   2.529   6.723   6.109 -0.1548  0.6038  0.1425
 2133SOL    HW1 7849   2.504   6.815   6.102 -0.2856  0.5025 -0.8644
 2133SOL    HW2 7850   2.598   6.722   6.175 -0.4625  1.3590  0.4891
 2134SOL     OW 7851   4.728   6.430   1.585  0.9609  0.3161  0.1361
 2134SOL    HW1 7852   4.797   6.455   1.647 -0.8101  0.6997  2.0649
 2134SOL    HW2 7853   4.696   6.346   1.618 -0.6497  0.9755  0.3245
 2135SOL     OW 7854   2.904   4.325   0.220 -0.7999 -0.6077  0.0819
 2135SOL    HW1 7855   2.871   4.341   0.309  2.4611 -0.5806  1.4464
 2135SOL    HW2 7856   2.956   4.245   0.228  0.6484  0.1291 -1.4705
 2136SOL     OW 7857   5.848   3.573   4.049 -0.5451 -0.5412  0.4278
 2136SOL    HW1 7858   5.837   3.593   3.956 -0.0456 -0.2566  0.4287
 2136SOL    HW2 7859   5.758   3.574   4.084 -0.6155  1.1820  0.3207
 2137SOL     OW 7860   0.926   4.990   0.242 -0.5237  0.3401  0.2895
 2137SOL    HW1 7861   0.846   5.024   0.283 -0.3754  0.7889  0.2148
 2137SOL    HW2 7862   0.918   4.895   0.248 -0.4494  0.3839  1.4990
 2138SOL     OW 7863   0.010   5.352   6.898 -0.5658  0.6370 -0.3772
 2138SOL    HW1 7864   0.079   5.409   6.932 -0.4413 -0.5481  1.4670
 2138SOL    HW2 7865   0.009   5.370   6.804  0.9142  2.1080 -0.1576
 2139SOL     OW 7866   1.163   2.029   4.135 -0.1760  0.4590 -0.4269
 2139SOL    HW1 7867   1.216   1.949   4.133  0.9493  0.9642  2.8848
 2139SOL    HW2 7868   1.188   2.077   4.056 -0.0836 -1.9244 -1.9341
 2140SOL     OW 7869   6.247   4.298   1.228 -0.2323 -0.0174 -0.0842
 2140SOL    HW1 7870   6.341   4.293   1.247 -0.2756  1.7418  0.8093
 2140SOL    HW2 7871   6.238   4.372   1.168 -0.8126 -1.7842 -2.3014
 2141SOL     OW 7872   1.086   3.004   5.118  0.3643 -0.1331 -0.0737
 2141SOL    HW1 7873   0.994   2.993   5.142  0.4580  3.6915  3.0070
 2141SOL    HW2 7874   1.134   2.952   5.182  0.4793 -1.7738 -1.4146
 2142SOL     OW 7875   4.565   2.853   5.903  0.3920 -0.3252 -0.1758
 2142SOL    HW1 7876   4.574   2.758   5.917  2.1213 -0.0728  0.6628
 2142SOL    HW2 7877   4.626   2.873   5.833 -2.0350 -0.2055 -2.4052
 2143SOL     OW 7878   2.035   5.217   4.537  0.1541 -0.0233  0.1269
 2143SOL    HW1 7879   1.984   5.203   4.617 -0.1565 -0.0225 -0.0723
 2143SOL    HW2 7880   2.122   5.240   4.569  0.2657 -0.8813  0.4610
 2144SOL     OW 7881   6.644   5.207   4.637 -0.4997  0.7847  0.2382
 2144SOL    HW1 7882   6.578   5.152   4.679 -1.0227  0.6222 -0.7731
 2144SOL    HW2 7883   6.728   5.170   4.666 -0.8039 -1.3394 -1.3584
 2145SOL     OW 7884   3.293   0.778   3.459  0.3286 -0.0265  0.4204
 2145SOL    HW1 7885   3.303   0.860   3.509 -0.1176  0.7299 -0.7026
 2145SOL    HW2 7886   3.383   0.753   3.438  0.4661  2.3669 -2.6233
 2146SOL     OW 7887   2.765   6.375   2.720  0.5441  0.4892  0.1621
 2146SOL    HW1 7888   2.796   6.462   2.744 -0.0345  0.5751  0.6161
 2146SOL    HW2 7889   2.674   6.389   2.691  0.6735  0.1388 -0.4392
 2147SOL     OW 7890   4.719   2.402   1.828  0.1457 -0.2573  0.2270
 2147SOL    HW1 7891   4.648   2.343   1.851  0.4305 -1.7393 -2.2954
 2147SOL    HW2 7892   4.798   2.348   1.832  0.9958  0.9935  1.5773
 2148SOL     OW 7893   1.551   1.103   4.872 -0.0844 -0.5284 -0.1730
 2148SOL    HW1 7894   1.575   1.017   4.907 -0.5736 -0.3595  0.6101
 2148SOL    HW2 7895   1.564   1.163   4.946  2.7896  0.5535 -1.4239
 2149SOL     OW 7896   0.886   3.993   0.246 -0.4518  0.3241  0.7502
 2149SOL    HW1 7897   0.944   3.925   0.279  0.5612 -0.1552 -1.7727
 2149SOL    HW2 7898   0.938   4.073   0.251 -0.6050  0.4028  1.0889
 2150SOL     OW 7899   5.687   3.893   5.685  0.4201 -0.6394  0.0721
 2150SOL    HW1 7900   5.592   3.903   5.690  0.2453 -1.6727 -0.7473
 2150SOL    HW2 7901   5.716   3.895   5.776 -0.1423  1.5721  0.2560
 2151SOL     OW 7902   2.564   0.472   6.097 -0.3307  0.3331  0.2443
 2151SOL    HW1 7903   2.566   0.383   6.133 -0.7013 -0.2060 -1.0261
 2151SOL    HW2 7904   2.537   0.460   6.006 -0.0090  1.7206 -0.0437
 2152SOL     OW 7905   0.942   5.206   4.796  0.0298  0.0270  0.0749
 2152SOL    HW1 7906   0.946   5.113   4.816 -0.3041 -0.0630 -0.2662
 2152SOL    HW2 7907   0.848   5.224   4.784 -0.0893  0.7242  1.6595
 2153SOL     OW 7908   1.445   0.741   3.934 -0.6420 -0.0012 -0.6160
 2153SOL    HW1 7909   1.365   0.779   3.970  0.5638  1.3984  0.7270
 2153SOL    HW2 7910   1.505   0.815   3.924  0.6860 -1.0901 -1.0152
 2154SOL     OW 7911   3.186   1.137   0.548  0.4703 -0.0196  0.3808
 2154SOL    HW1 7912   3.267   1.182   0.524  1.3923 -1.6034  0.3931
 2154SOL    HW2 7913   3.117   1.192   0.512  1.5953  0.6907 -0.8029
 2155SOL     OW 7914   3.937   4.977   1.641  0.2968 -0.4891  0.5643
 2155SOL    HW1 7915   3.879   5.044   1.676  1.3695 -0.8996  3.4253
 2155SOL    HW2 7916   3.880   4.918   1.592 -1.3447  0.2342  1.5435
 2156SOL     OW 7917   7.040   7.111   4.674  0.6470 -0.0258  0.2467
 2156SOL    HW1 7918   7.037   7.038   4.612  0.4642  0.1412  0.0606
 2156SOL    HW2 7919   6.956   7.108   4.719  0.7154 -0.0464  0.3736
 2157SOL     OW 7920   4.075   1.101   6.678 -0.0539  0.6275  0.7354
 2157SOL    HW1 7921   4.152   1.049   6.656 -0.2181 -0.0737  1.7465
 2157SOL    HW2 7922   4.109   1.188   6.700  0.2034  1.0477 -1.1516
 2158SOL     OW 7923   2.587   2.793   0.776  0.2434  0.0593  0.2104
 2158SOL    HW1 7924   2.588   2.744   0.858  0.2506 -1.4377 -0.6413
 2158SOL    HW2 7925   2.499   2.832   0.772  0.0042 -0.4336  0.6135
 2159SOL     OW 7926   6.202   2.909   0.229 -0.4615  0.0587  0.3938
 2159SOL    HW1 7927   6.108   2.898   0.237 -0.4134  0.1509  1.0841
 2159SOL    HW2 7928   6.238   2.821   0.234 -0.5604 -0.0515 -0.6322
 2160SOL     OW 7929   6.120   1.422   0.358  0.2779 -0.1777  0.5432
 2160SOL    HW1 7930   6.078   1.425   0.444 -0.3332  1.3822  0.2268
 2160SOL    HW2 7931   6.054   1.383   0.301  0.2524 -0.1599  0.5605
 2161SOL     OW 7932   2.404   0.699   6.918 -0.1598  0.8051  0.0620
 2161SOL    HW1 7933   2.472   0.739   6.864 -0.7670  0.6126 -0.8592
 2161SOL    HW2 7934   2.321   0.726   6.877 -0.6521  0.9331  1.0861
 2162SOL     OW 7935   5.428   0.119   0.261  0.6855 -0.3392 -0.0285
 2162SOL    HW1 7936   5.475   0.201   0.248 -0.1729  0.0171 -0.9884
 2162SOL    HW2 7937   5.358   0.120   0.196 -1.5734 -0.2034  2.2591
 2163SOL     OW 7938   3.113   7.005   3.904  0.1854  0.2128 -0.2973
 2163SOL    HW1 7939   3.131   7.097   3.923  2.7478 -0.4644  1.0450
 2163SOL    HW2 7940   3.124   6.997   3.810  0.2936  1.2126 -0.3824
 2164SOL     OW 7941   5.960   1.340   2.571 -0.2358  0.4770  0.0919
 2164SOL    HW1 7942   6.044   1.340   2.527 -0.9735 -1.3603 -1.4643
 2164SOL    HW2 7943   5.982   1.336   2.664  1.3664  1.5030 -0.2070
 2165SOL     OW 7944   3.593   5.250   0.888 -0.4238  0.4039 -0.3131
 2165SOL    HW1 7945   3.525   5.291   0.835  0.2293  1.3693 -0.4394
 2165SOL    HW2 7946   3.597   5.302   0.968  0.6085  0.7933 -0.5918
 2166SOL     OW 7947   0.913   2.341   1.227  0.4127 -0.2173 -0.1306
 2166SOL    HW1 7948   0.916   2.409   1.294  2.3635  0.1566 -0.5367
 2166SOL    HW2 7949   0.862   2.380   1.156 -1.4675 -0.5256  0.9712
 2167SOL     OW 7950   6.536   4.779   2.575 -0.0056 -0.0116 -0.6338
 2167SOL    HW1 7951   6.617   4.747   2.615  0.3583  2.8827  1.2795
 2167SOL    HW2 7952   6.538   4.744   2.486  2.2675 -1.7825  0.0180
 2168SOL     OW 7953   5.142   1.600   4.632  0.3093  0.2636  0.1954
 2168SOL    HW1 7954   5.195   1.678   4.646  0.9569 -0.1899  0.3319
 2168SOL    HW2 7955   5.076   1.603   4.701  0.3617  0.6579  0.2327
 2169SOL     OW 7956   6.019   2.775   7.065  0.0341 -0.3406 -0.4038
 2169SOL    HW1 7957   5.966   2.790   7.143 -1.4509 -0.4335 -1.3582
 2169SOL    HW2 7958   6.043   2.863   7.036  0.5950 -0.3054  0.1367
 2170SOL     OW 7959   2.995   6.068   1.479  0.3269 -0.3537 -0.4298
 2170SOL    HW1 7960   2.968   5.977   1.489 -0.7232  0.1463  1.8744
 2170SOL    HW2 7961   2.979   6.087   1.386 -0.8986 -2.0664 -0.6243
 2171SOL     OW 7962   6.234   4.677   1.856  0.2322 -0.1210 -0.0207
 2171SOL    HW1 7963   6.275   4.733   1.789  1.0479  0.8330  1.2218
 2171SOL    HW2 7964   6.140   4.693   1.847  0.3619  0.3250 -0.6398
 2172SOL     OW 7965   3.925   2.133   2.752  0.0222  0.1420  0.3664
 2172SOL    HW1 7966   3.881   2.050   2.731  2.1640 -0.9604 -0.0703
 2172SOL    HW2 7967   3.856   2.199   2.747 -1.3925 -1.3504 -1.1725
 2173SOL     OW 7968   1.148   3.495   2.226  0.1787 -0.0968 -0.0011
 2173SOL    HW1 7969   1.063   3.473   2.188 -0.2335  1.8709 -0.2917
 2173SOL    HW2 7970   1.144   3.462   2.316 -2.5274  3.4014  1.3919
 2174SOL     OW 7971   1.732   4.383   0.375 -0.6496  0.3464 -0.4700
 2174SOL    HW1 7972   1.716   4.409   0.285  0.7959 -1.7652 -1.4007
 2174SOL    HW2 7973   1.675   4.308   0.389  0.7198 -0.7138 -0.3913
 2175SOL     OW 7974   4.815   6.234   0.650 -0.0481 -0.0884  0.2853
 2175SOL    HW1 7975   4.737   6.270   0.608  0.2466  0.6260  0.3389
 2175SOL    HW2 7976   4.887   6.285   0.615  0.5310 -1.4067 -0.5319
 2176SOL     OW 7977   5.669   5.195   5.308  0.7074 -0.0390  0.4474
 2176SOL    HW1 7978   5.743   5.257   5.303 -0.4404  1.3096 -0.8992
 2176SOL    HW2 7979   5.679   5.140   5.231 -0.9750  1.7353 -1.1144
 2177SOL     OW 7980   6.519   3.840   0.607 -0.4115 -0.1540 -0.7601
 2177SOL    HW1 7981   6.580   3.878   0.671 -0.9277 -0.4565 -0.0724
 2177SOL    HW2 7982   6.434   3.878   0.629 -0.2575  1.4255 -2.6568
 2178SOL     OW 7983   6.380   1.172   5.253 -0.3034 -0.4616  0.2385
 2178SOL    HW1 7984   6.294   1.213   5.244  0.2097  0.5518 -0.1609
 2178SOL    HW2 7985   6.429   1.202   5.176  0.9472  0.3327  1.3059
 2179SOL     OW 7986   3.179   1.233   5.540 -0.0304 -0.3126  0.1745
 2179SOL    HW1 7987   3.123   1.157   5.558 -0.5904 -0.3410 -1.4711
 2179SOL    HW2 7988   3.249   1.227   5.604 -1.5444 -0.6515  1.8993
 2180SOL     OW 7989   1.940   2.045   6.597 -0.4048 -0.2185 -0.2186
 2180SOL    HW1 7990   1.923   2.129   6.641 -1.6161  1.1294 -3.0595
 2180SOL    HW2 7991   1.901   1.980   6.655 -2.9178  1.5505  0.2475
 2181SOL     OW 7992   3.101   0.802   1.906  0.1345  0.2567  0.2414
 2181SOL    HW1 7993   3.139   0.811   1.818 -1.4936 -2.0504 -0.8034
 2181SOL    HW2 7994   3.177   0.796   1.964  1.2476  1.5897 -0.9907
 2182SOL     OW 7995   6.542   0.033   5.850  0.0997  0.1840 -0.2972
 2182SOL    HW1 7996   6.504  -0.019   5.780 -0.7832 -0.6660  0.7760
 2182SOL    HW2 7997   6.482   0.022   5.924  1.0554  0.9546  0.6326
 2183SOL     OW 7998   4.942   1.939   5.160 -0.1694 -0.1942 -0.2858
 2183SOL    HW1 7999   5.020   1.904   5.204 -0.5472 -0.7045 -0.0158
 2183SOL    HW2 8000   4.887   1.862   5.145 -1.3712  0.3746  1.0107
 2184SOL     OW 8001   5.591   3.872   2.815 -0.3010  0.5217  0.1375
 2184SOL    HW1 8002   5.634   3.927   2.749 -1.7106 -0.7916 -2.0267
 2184SOL    HW2 8003   5.526   3.930   2.855  2.4875  2.2092  2.6847
 2185SOL     OW 8004   5.445   3.970   6.381  0.2266  0.0203 -0.4290
 2185SOL    HW1 8005   5.493   3.938   6.457 -0.4341 -0.4414 -0.1975
 2185SOL    HW2 8006   5.356   3.939   6.394 -0.3777  1.6649 -0.3713
 2186SOL     OW 8007   4.911   1.970   0.660 -0.1068  0.2564 -0.0776
 2186SOL    HW1 8008   4.901   1.891   0.607 -1.6786  0.2165  0.2461
 2186SOL    HW2 8009   4.903   1.941   0.750  0.2050  0.6564  0.0823
 2187SOL     OW 8010   2.796   0.011   2.308  0.4493 -0.1174 -0.7097
 2187SOL    HW1 8011   2.816   0.040   2.219 -1.6507  0.7424 -0.9679
 2187SOL    HW2 8012   2.749   0.085   2.347 -2.3856 -1.9684 -0.3289
 2188SOL     OW 8013   1.351   4.749   1.367 -0.4211 -0.0987  0.3216
 2188SOL    HW1 8014   1.263   4.779   1.389 -0.5961 -0.2547 -0.1423
 2188SOL    HW2 8015   1.405   4.773   1.442 -0.7535  0.4774  0.3754
 2189SOL     OW 8016   3.140   5.866   5.393  0.2279  0.0253  0.1144
 2189SOL    HW1 8017   3.102   5.796   5.447  1.3921 -0.8357 -0.1466
 2189SOL    HW2 8018   3.086   5.867   5.314  0.2653 -0.6591  0.0732
 2190SOL     OW 8019   2.658   2.132   2.030 -0.3263 -0.0632  0.4062
 2190SOL    HW1 8020   2.654   2.185   1.951 -0.1714 -0.8173 -0.1232
 2190SOL    HW2 8021   2.570   2.096   2.040 -0.1507 -0.5904  0.1252
 2191SOL     OW 8022   3.023   5.228   2.338 -0.1662  0.2644  0.2570
 2191SOL    HW1 8023   3.107   5.259   2.373  1.5318 -0.0869 -3.0297
 2191SOL    HW2 8024   2.999   5.155   2.394  1.7015  0.4130  1.3545
 2192SOL     OW 8025   6.290   4.599   1.466 -0.3878 -0.1665 -0.1680
 2192SOL    HW1 8026   6.223   4.659   1.498 -0.0799  0.5157 -0.7848
 2192SOL    HW2 8027   6.306   4.627   1.376  2.4915  1.2942  0.6896
 2193SOL     OW 8028   4.474   6.318   2.055 -0.1396 -0.7505 -0.1423
 2193SOL    HW1 8029   4.449   6.242   2.004  0.1287 -0.0812 -1.2927
 2193SOL    HW2 8030   4.435   6.393   2.009  0.0879 -0.1309  0.6396
 2194SOL     OW 8031   6.784   2.359   3.230  0.2997 -0.1437 -0.2858
 2194SOL    HW1 8032   6.863   2.312   3.256  1.0703  1.0846 -0.3380
 2194SOL    HW2 8033   6.761   2.411   3.307  2.2022  2.9896 -1.6231
 2195SOL     OW 8034   4.495   5.254   1.404  0.5436  0.0934  0.3832
 2195SOL    HW1 8035   4.445   5.326   1.367  1.1002  0.2149 -0.1619
 2195SOL    HW2 8036   4.450   5.175   1.373  0.3944  0.2050  0.3179
 2196SOL     OW 8037   2.714   3.877   3.421  0.0889  0.2853 -0.0114
 2196SOL    HW1 8038   2.703   3.812   3.351  0.5591  0.8627 -0.6303
 2196SOL    HW2 8039   2.724   3.825   3.500  2.4258 -0.4793 -0.7447
 2197SOL     OW 8040   4.464   3.881   4.764  0.1308  0.2524 -0.3137
 2197SOL    HW1 8041   4.434   3.862   4.853 -0.1170 -1.1141 -0.6660
 2197SOL    HW2 8042   4.415   3.959   4.738  0.6318  1.0160  0.9411
 2198SOL     OW 8043   2.798   0.275   1.533  0.5997 -0.0515  0.0406
 2198SOL    HW1 8044   2.830   0.216   1.602 -0.2908 -0.7633 -0.1316
 2198SOL    HW2 8045   2.833   0.361   1.557 -1.3747  0.1467  2.5649
 2199SOL     OW 8046   1.873   4.170   3.307  0.0771  0.1955  0.5991
 2199SOL    HW1 8047   1.840   4.186   3.219  1.7594 -1.5504 -0.3994
 2199SOL    HW2 8048   1.954   4.120   3.295 -0.2253 -1.0902  3.1593
 2200SOL     OW 8049   2.743   6.881   6.770  0.2908 -0.5864  0.0822
 2200SOL    HW1 8050   2.774   6.968   6.747  0.8459 -0.6865  0.4294
 2200SOL    HW2 8051   2.720   6.887   6.863  0.8681 -0.9536  0.2553
 2201SOL     OW 8052   6.967   1.540   5.615  0.7427 -0.0202 -0.0031
 2201SOL    HW1 8053   6.955   1.453   5.577  1.8681  0.1561 -0.8092
 2201SOL    HW2 8054   6.899   1.546   5.682 -1.8380 -0.0836 -2.3873
 2202SOL     OW 8055   1.284   6.913   5.950 -0.1435  0.5814  0.0069
 2202SOL    HW1 8056   1.268   6.922   5.856 -0.0349 -0.6565 -0.1492
 2202SOL    HW2 8057   1.227   6.978   5.991 -0.0931  1.2251 -0.9207
 2203SOL     OW 8058   6.500   0.355   6.107  0.1950  0.1962  0.1061
 2203SOL    HW1 8059   6.564   0.296   6.147  0.8952  0.4138 -0.6435
 2203SOL    HW2 8060   6.527   0.359   6.015 -1.1278  0.0086 -0.3063
 2204SOL     OW 8061   4.468   2.601   4.467 -0.1122 -0.4337  0.1088
 2204SOL    HW1 8062   4.518   2.528   4.431  2.1162  0.6876  0.7696
 2204SOL    HW2 8063   4.390   2.559   4.506  1.3392 -2.5544  0.9558
 2205SOL     OW 8064   0.883   0.523   0.279  0.5216  0.1421  0.1286
 2205SOL    HW1 8065   0.840   0.537   0.363  0.3240  2.0586 -0.2408
 2205SOL    HW2 8066   0.969   0.489   0.300  0.9842  1.8745  1.2141
 2206SOL     OW 8067   0.520   5.227   3.043  0.2726 -0.5206 -0.0179
 2206SOL    HW1 8068   0.533   5.317   3.012 -1.6064 -0.1809  0.0686
 2206SOL    HW2 8069   0.506   5.176   2.964 -0.9691 -0.3032  0.0524
 2207SOL     OW 8070   0.488   2.971   6.443 -0.1418  0.2603 -0.3724
 2207SOL    HW1 8071   0.454   2.884   6.422 -0.1251 -0.4216  2.1370
 2207SOL    HW2 8072   0.414   3.017   6.481  0.9757 -0.4392  2.9693
 2208SOL     OW 8073   5.194   6.316   5.435 -0.2560 -1.1002  0.1741
 2208SOL    HW1 8074   5.109   6.334   5.394 -0.7139 -3.2859  0.0533
 2208SOL    HW2 8075   5.258   6.344   5.370 -0.9565 -2.8118 -1.3504
 2209SOL     OW 8076   1.535   6.701   5.230  0.2434 -0.0391  0.2076
 2209SOL    HW1 8077   1.495   6.615   5.242 -0.3711  0.4623  2.1347
 2209SOL    HW2 8078   1.464   6.756   5.197  0.3804 -0.0559 -0.1140
 2210SOL     OW 8079   1.819   1.217   1.983 -0.5124 -0.2341  0.1996
 2210SOL    HW1 8080   1.883   1.151   2.009 -1.4192  0.2847  4.4546
 2210SOL    HW2 8081   1.868   1.277   1.926  1.0985 -2.8525 -1.3961
 2211SOL     OW 8082   4.305   6.565   4.345  0.1243 -0.0007 -0.2387
 2211SOL    HW1 8083   4.342   6.652   4.359 -0.4633  0.1736  0.2624
 2211SOL    HW2 8084   4.244   6.576   4.273 -2.2315  0.7158  1.7213
 2212SOL     OW 8085   2.687   2.622   6.252 -0.2818 -0.2444  0.2561
 2212SOL    HW1 8086   2.623   2.562   6.292 -0.1712 -0.6473 -0.1563
 2212SOL    HW2 8087   2.766   2.610   6.304 -0.4892  0.1346  0.6678
 2213SOL     OW 8088   3.432   1.791   5.778 -0.3245  0.3116 -0.5991
 2213SOL    HW1 8089   3.441   1.702   5.743 -0.2457  0.7092 -1.6386
 2213SOL    HW2 8090   3.441   1.781   5.872  0.2143 -0.7114 -0.7457
 2214SOL     OW 8091   6.536   2.221   3.125  0.0623  0.5578  0.1209
 2214SOL    HW1 8092   6.545   2.127   3.136 -0.7520  0.3177 -1.1163
 2214SOL    HW2 8093   6.611   2.258   3.172  1.7174 -0.8148 -1.3275
 2215SOL     OW 8094   4.012   4.041   0.382 -0.1714 -0.4088 -0.2675
 2215SOL    HW1 8095   4.075   4.009   0.447 -1.2562 -1.1760  0.4365
 2215SOL    HW2 8096   4.007   4.135   0.397  0.4666 -0.4082 -0.0358
 2216SOL     OW 8097   3.521   5.224   4.948  0.2701  0.1360  0.7053
 2216SOL    HW1 8098   3.562   5.138   4.948  0.4941  0.2374  1.5991
 2216SOL    HW2 8099   3.524   5.252   4.856  1.2940 -0.2886  0.5987
 2217SOL     OW 8100   0.698   5.108   0.412  0.7658  1.0950 -0.6913
 2217SOL    HW1 8101   0.607   5.123   0.389  1.3281  2.6650 -2.1455
 2217SOL    HW2 8102   0.698   5.093   0.506 -0.7853  3.0620 -0.3316
 2218SOL     OW 8103   1.934   3.671   4.071  0.1157 -0.0393 -0.0038
 2218SOL    HW1 8104   1.965   3.744   4.125  4.4898 -0.9325 -0.9320
 2218SOL    HW2 8105   1.948   3.593   4.125  0.0590 -0.5562 -0.7145
 2219SOL     OW 8106   1.091   0.717   5.745  0.6831 -0.4018 -0.4241
 2219SOL    HW1 8107   1.109   0.693   5.836 -0.1922 -1.1744 -0.4377
 2219SOL    HW2 8108   1.117   0.809   5.739 -2.7075  0.9178  1.6984
 2220SOL     OW 8109   0.828   1.212   5.367  0.6614  0.4202  0.0865
 2220SOL    HW1 8110   0.889   1.277   5.401 -0.6575  1.3694  0.7410
 2220SOL    HW2 8111   0.814   1.236   5.276  1.2659  0.1891 -0.0685
 2221SOL     OW 8112   6.257   6.052   4.454  0.0660  0.1860 -0.0983
 2221SOL    HW1 8113   6.337   6.007   4.426  0.0834 -0.5918  1.1368
 2221SOL    HW2 8114   6.288   6.122   4.511 -0.1195 -0.0773  0.3314
 2222SOL     OW 8115   1.721   5.396   5.801  0.1851 -0.4044 -0.2667
 2222SOL    HW1 8116   1.786   5.452   5.759 -0.4894  0.9105  0.3653
 2222SOL    HW2 8117   1.771   5.324   5.838  1.0036 -0.5830 -1.6661
 2223SOL     OW 8118   6.422   0.729   5.919 -0.2093 -0.1843 -0.2324
 2223SOL    HW1 8119   6.383   0.802   5.870 -0.6373 -0.4873 -0.3510
 2223SOL    HW2 8120   6.346   0.681   5.953  0.0793  0.5114  1.4664
 2224SOL     OW 8121   0.831   1.459   0.703  0.0937  0.0439  0.2952
 2224SOL    HW1 8122   0.916   1.427   0.732  1.5273  3.5381  0.4651
 2224SOL    HW2 8123   0.776   1.451   0.781  1.2906  0.8795  1.2708
 2225SOL     OW 8124   6.152   2.572   6.908 -0.0641 -0.7673 -0.4570
 2225SOL    HW1 8125   6.193   2.537   6.988  1.5078  0.6369 -0.5928
 2225SOL    HW2 8126   6.102   2.647   6.938  2.8061  1.5597 -0.9921
 2226SOL     OW 8127   3.336   6.410   5.146  0.5732 -0.0283 -0.0648
 2226SOL    HW1 8128   3.389   6.488   5.163 -1.0287  1.1751 -0.4137
 2226SOL    HW2 8129   3.327   6.368   5.231  1.5790  0.0675  0.0991
 2227SOL     OW 8130   5.182   1.334   6.698 -0.1003  0.5943  0.2991
 2227SOL    HW1 8131   5.191   1.414   6.749 -0.2257  1.6653 -1.2913
 2227SOL    HW2 8132   5.200   1.360   6.608 -2.0101 -0.7468 -0.5533
 2228SOL     OW 8133   1.034   5.822   0.427  0.2293 -0.1997  0.2348
 2228SOL    HW1 8134   1.117   5.849   0.467  1.0192 -0.5048 -1.1241
 2228SOL    HW2 8135   1.060   5.759   0.360 -1.0626  0.1363 -0.6029
 2229SOL     OW 8136   4.772   5.560   3.511  0.3420  0.1545 -0.5919
 2229SOL    HW1 8137   4.790   5.636   3.457 -2.3893  1.8852  0.7127
 2229SOL    HW2 8138   4.692   5.522   3.474 -0.4507  0.2098  0.9624
 2230SOL     OW 8139   5.116   5.078   1.491 -0.0526 -0.9933 -0.2656
 2230SOL    HW1 8140   5.155   5.045   1.571  1.2787 -0.3768 -0.6309
 2230SOL    HW2 8141   5.050   5.141   1.520 -0.3850 -1.6244  0.3560
 2231SOL     OW 8142   0.660   4.768   5.514 -0.1386  0.7070  0.5771
 2231SOL    HW1 8143   0.591   4.833   5.500 -0.8948  0.2499  2.0002
 2231SOL    HW2 8144   0.660   4.715   5.434 -2.8368 -0.5516  1.3062
 2232SOL     OW 8145   4.785   0.816   6.904 -0.2486  0.2359  0.1130
 2232SOL    HW1 8146   4.695   0.836   6.880  0.1938  2.6297  0.2178
 2232SOL    HW2 8147   4.784   0.723   6.925 -2.8604  0.3563  0.8639
 2233SOL     OW 8148   0.750   1.948   6.511 -0.4022 -0.2881  0.2796
 2233SOL    HW1 8149   0.677   1.943   6.572 -0.1677 -0.8258  0.5195
 2233SOL    HW2 8150   0.826   1.970   6.566 -0.1145 -1.1840  0.2489
 2234SOL     OW 8151   3.431   2.066   5.330  0.1557 -0.8033 -0.4401
 2234SOL    HW1 8152   3.439   1.989   5.386  0.8759  0.0427  0.6847
 2234SOL    HW2 8153   3.367   2.041   5.263  0.1983 -2.2779  0.0310
 2235SOL     OW 8154   3.464   5.289   2.260 -0.5815 -0.5788  0.0819
 2235SOL    HW1 8155   3.530   5.293   2.329 -0.8986 -2.5111  0.5310
 2235SOL    HW2 8156   3.381   5.304   2.305 -0.6228  0.1272 -0.2130
 2236SOL     OW 8157   6.502   4.606   4.535 -0.8557 -0.6212  0.3032
 2236SOL    HW1 8158   6.578   4.629   4.483  0.2729  0.0596  2.1580
 2236SOL    HW2 8159   6.505   4.510   4.541 -1.1318 -0.7264 -1.0159
 2237SOL     OW 8160   1.437   5.211   1.917  0.3620 -0.3995 -0.5082
 2237SOL    HW1 8161   1.402   5.127   1.948  1.5905 -1.2433 -1.3365
 2237SOL    HW2 8162   1.391   5.277   1.970 -1.9161 -1.4677 -1.0101
 2238SOL     OW 8163   6.883   1.576   6.277  0.7260 -0.4599  1.0048
 2238SOL    HW1 8164   6.824   1.503   6.257  2.5297 -1.3843 -1.4949
 2238SOL    HW2 8165   6.826   1.642   6.317 -1.3238 -2.5212  1.7526
 2239SOL     OW 8166   5.235   4.657   4.312 -0.3862 -0.1715 -0.5473
 2239SOL    HW1 8167   5.240   4.655   4.216  1.9058  0.0334 -0.4982
 2239SOL    HW2 8168   5.325   4.678   4.339 -0.9814 -0.3105  1.6540
 2240SOL     OW 8169   5.750   1.761   4.409  0.1488  0.3610 -0.1456
 2240SOL    HW1 8170   5.805   1.795   4.338  1.0338 -1.0785 -0.1946
 2240SOL    HW2 8171   5.811   1.717   4.468 -0.6353  1.1518  1.3073
 2241SOL     OW 8172   3.525   1.089   1.958  0.1592  0.4514  0.2850
 2241SOL    HW1 8173   3.452   1.117   2.013  1.1573  0.8935  1.4502
 2241SOL    HW2 8174   3.553   1.168   1.913 -1.3084 -0.1080 -1.7422
 2242SOL     OW 8175   7.022   5.847   3.263  0.8084 -0.4947  1.0409
 2242SOL    HW1 8176   7.036   5.755   3.238 -0.3751 -0.7248  1.1819
 2242SOL    HW2 8177   6.927   5.856   3.269  0.8374  1.0590 -0.1588
 2243SOL     OW 8178   0.436   3.666   5.836 -0.3746  0.1793 -0.2276
 2243SOL    HW1 8179   0.395   3.749   5.861  0.2947  0.7932 -1.1260
 2243SOL    HW2 8180   0.470   3.631   5.918  1.3205  1.8950 -0.1305
 2244SOL     OW 8181   0.365   6.529   5.654  0.3654  0.5325  0.0744
 2244SOL    HW1 8182   0.409   6.511   5.736 -0.9799 -1.2992  0.4705
 2244SOL    HW2 8183   0.279   6.488   5.664 -0.9765  2.8709 -1.1166
 2245SOL     OW 8184   5.126   6.011   0.407  0.0165 -0.5109  0.1554
 2245SOL    HW1 8185   5.188   6.037   0.475  0.1227  1.6967 -0.6887
 2245SOL    HW2 8186   5.174   6.023   0.325 -0.9890 -0.3344 -0.4284
 2246SOL     OW 8187   0.186   6.365   5.774 -0.2473  0.1802 -0.5146
 2246SOL    HW1 8188   0.159   6.369   5.865 -1.7537  3.0146 -0.9781
 2246SOL    HW2 8189   0.129   6.300   5.734  1.1295 -1.8686  0.7005
 2247SOL     OW 8190   4.372   5.408   2.057 -0.6184 -0.3337 -0.3970
 2247SOL    HW1 8191   4.388   5.328   2.108 -0.4422  1.5551  2.7717
 2247SOL    HW2 8192   4.305   5.455   2.107  0.7241  2.4326 -1.0058
 2248SOL     OW 8193   3.703   2.521   6.779 -0.5722 -0.6634 -0.2404
 2248SOL    HW1 8194   3.723   2.452   6.717 -1.4793  0.3486 -1.7363
 2248SOL    HW2 8195   3.610   2.539   6.765 -0.7074 -0.1588  1.1678
 2249SOL     OW 8196   6.192   3.290   5.265  0.3006  0.3726 -0.0329
 2249SOL    HW1 8197   6.244   3.228   5.214  2.1266 -1.2354  3.4198
 2249SOL    HW2 8198   6.106   3.249   5.274 -0.2612  0.9627 -2.1180
 2250SOL     OW 8199   5.126   0.422   5.433  0.4892  0.2503 -0.3872
 2250SOL    HW1 8200   5.144   0.511   5.402 -1.1166  0.3385 -1.1888
 2250SOL    HW2 8201   5.085   0.379   5.358  0.3158 -0.8636  0.3262
 2251SOL     OW 8202   4.629   6.904   0.467 -0.2538 -0.7420 -0.2076
 2251SOL    HW1 8203   4.628   6.874   0.558  0.4676 -1.4902 -0.4270
 2251SOL    HW2 8204   4.691   6.976   0.466 -1.9959  0.8410  0.3245
 2252SOL     OW 8205   4.547   4.536   5.632 -0.0447 -0.7691 -0.2075
 2252SOL    HW1 8206   4.586   4.454   5.662  1.4371  0.3980  1.2448
 2252SOL    HW2 8207   4.615   4.576   5.577 -1.4533 -1.3084 -2.4555
 2253SOL     OW 8208   6.483   4.756   5.493  0.3815 -0.8345 -0.3235
 2253SOL    HW1 8209   6.488   4.694   5.566 -1.3770  0.6527  1.1601
 2253SOL    HW2 8210   6.574   4.767   5.466  1.6984  1.1585  4.0201
 2254SOL     OW 8211   3.873   1.485   5.062  0.1257 -0.1447 -0.0296
 2254SOL    HW1 8212   3.835   1.572   5.074  2.0177  0.7617 -0.2992
 2254SOL    HW2 8213   3.813   1.426   5.108  0.0237  1.5562  2.1619
 2255SOL     OW 8214   5.045   5.234   2.959 -0.1055 -0.4841 -0.0495
 2255SOL    HW1 8215   5.025   5.249   3.051 -0.9521 -0.4165 -0.2327
 2255SOL    HW2 8216   4.963   5.254   2.913  0.2002 -0.8557 -0.7802
 2256SOL     OW 8217   2.801   6.027   4.469 -0.9365 -0.4772 -0.9308
 2256SOL    HW1 8218   2.746   5.988   4.537  2.2856  0.3162  2.4359
 2256SOL    HW2 8219   2.818   6.116   4.500  2.3966 -0.7659 -1.5964
 2257SOL     OW 8220   4.519   2.838   1.097 -0.0626  0.0569  0.4056
 2257SOL    HW1 8221   4.580   2.908   1.076 -0.9009  0.5864 -0.3096
 2257SOL    HW2 8222   4.484   2.810   1.012  0.6840 -1.6435  0.6025
 2258SOL     OW 8223   4.506   5.629   2.270 -0.9160 -0.5186 -0.6351
 2258SOL    HW1 8224   4.553   5.639   2.353  0.1400 -0.7776 -1.1936
 2258SOL    HW2 8225   4.513   5.715   2.228 -2.0048 -0.1902 -0.1965
 2259SOL     OW 8226   0.956   0.814   1.986 -0.5213 -0.1693 -0.1919
 2259SOL    HW1 8227   1.034   0.869   1.999  0.3942 -1.3472 -0.4889
 2259SOL    HW2 8228   0.973   0.768   1.904 -0.1984 -2.5251  1.0843
 2260SOL     OW 8229   5.596   6.766   2.506  0.4295  0.2478 -0.4089
 2260SOL    HW1 8230   5.570   6.720   2.426  0.3117 -2.0299  0.8408
 2260SOL    HW2 8231   5.542   6.726   2.575  3.9714 -1.5207  1.5973
 2261SOL     OW 8232   6.846   1.567   5.868 -0.3710 -0.0257  0.1471
 2261SOL    HW1 8233   6.779   1.510   5.904 -2.9244  2.2992 -0.5775
 2261SOL    HW2 8234   6.849   1.642   5.927  1.0342  0.3124 -0.3026
 2262SOL     OW 8235   4.810   2.659   3.750  0.7479  0.4640 -0.2485
 2262SOL    HW1 8236   4.890   2.673   3.699  2.4986  2.3537  2.7347
 2262SOL    HW2 8237   4.841   2.641   3.839 -2.1561 -1.0899  0.5915
 2263SOL     OW 8238   6.267   6.967   1.506 -0.3585  0.7462  0.2400
 2263SOL    HW1 8239   6.293   7.031   1.572 -1.1643  1.7191 -0.3541
 2263SOL    HW2 8240   6.260   7.017   1.425  0.2819 -0.3565 -0.5336
 2264SOL     OW 8241   3.212   5.667   4.206 -0.3076 -0.3907  0.0701
 2264SOL    HW1 8242   3.145   5.674   4.137  0.4709  1.8748 -0.5496
 2264SOL    HW2 8243   3.171   5.708   4.282 -0.2333 -0.5475  0.1939
 2265SOL     OW 8244   1.144   1.458   2.758 -0.1673 -0.0643  0.9692
 2265SOL    HW1 8245   1.227   1.463   2.805 -0.1516 -0.1861  0.9553
 2265SOL    HW2 8246   1.078   1.448   2.827 -0.0905 -0.8464  0.9423
 2266SOL     OW 8247   6.327   3.924   2.488  0.0242 -0.0200 -0.2999
 2266SOL    HW1 8248   6.417   3.898   2.506 -0.0082  0.3892  0.4547
 2266SOL    HW2 8249   6.323   3.929   2.392  0.9867  0.6178 -0.3157
 2267SOL     OW 8250   0.710   3.269   0.700 -0.0962 -0.3779  0.0663
 2267SOL    HW1 8251   0.649   3.213   0.652  0.7901 -2.5399  1.3271
 2267SOL    HW2 8252   0.697   3.356   0.662 -2.3291 -1.1850 -1.2276
 2268SOL     OW 8253   2.048   3.184   5.458 -0.7851  0.4619 -0.7248
 2268SOL    HW1 8254   2.079   3.095   5.446 -1.3096 -0.1877  1.9304
 2268SOL    HW2 8255   1.994   3.203   5.381  1.7614 -0.3149 -2.8263
 2269SOL     OW 8256   6.391   6.755   4.054  0.4066  0.4796  0.3940
 2269SOL    HW1 8257   6.407   6.843   4.021  2.6194  0.8556  2.1755
 2269SOL    HW2 8258   6.327   6.766   4.124  0.5389  0.6436  0.4886
 2270SOL     OW 8259   3.401   4.821   1.384  0.3822  0.2924  0.2154
 2270SOL    HW1 8260   3.372   4.843   1.473 -2.7031  0.0325 -0.6207
 2270SOL    HW2 8261   3.361   4.736   1.367  2.8676 -0.7800 -0.6467
 2271SOL     OW 8262   6.644   6.953   4.587 -0.3257 -0.0452  0.3381
 2271SOL    HW1 8263   6.659   7.047   4.579  0.0024 -0.0365  0.9972
 2271SOL    HW2 8264   6.652   6.920   4.498  0.3107  0.4375  0.2108
 2272SOL     OW 8265   1.876   5.957   2.483 -0.0826 -0.4773  0.4839
 2272SOL    HW1 8266   1.877   5.865   2.510 -2.5878 -0.8484 -0.3722
 2272SOL    HW2 8267   1.961   5.991   2.509 -0.3663 -2.0889  4.0609
 2273SOL     OW 8268   6.219   1.561   4.337  0.3561  0.3708  0.0606
 2273SOL    HW1 8269   6.231   1.492   4.402 -1.2238  0.8010  0.8554
 2273SOL    HW2 8270   6.297   1.615   4.345  0.4039  0.1536  1.2762
 2274SOL     OW 8271   3.355   7.032   7.005 -0.3280 -0.2127  0.4013
 2274SOL    HW1 8272   3.305   6.959   7.042  0.7720 -1.4252 -0.3717
 2274SOL    HW2 8273   3.403   6.992   6.932  0.7591  1.1698  0.3221
 2275SOL     OW 8274   1.126   6.036   2.773  0.1969 -0.1183 -0.3262
 2275SOL    HW1 8275   1.038   6.063   2.796  0.1472  0.5907 -1.2891
 2275SOL    HW2 8276   1.162   5.998   2.853 -0.8022  0.0429  0.2032
 2276SOL     OW 8277   4.572   1.101   0.510 -0.0974 -0.1773  0.0172
 2276SOL    HW1 8278   4.621   1.170   0.554 -0.1913  0.9726 -1.6135
 2276SOL    HW2 8279   4.639   1.050   0.464 -0.2999  0.8273 -1.4417
 2277SOL     OW 8280   3.045   3.755   2.136  0.0626  0.5534 -0.0407
 2277SOL    HW1 8281   3.132   3.738   2.173 -0.4197  1.2687  1.5352
 2277SOL    HW2 8282   3.057   3.751   2.042  1.6875  0.0726  0.1602
 2278SOL     OW 8283   4.748   0.447   0.996  0.4490  0.1508  0.2343
 2278SOL    HW1 8284   4.836   0.478   1.016  0.0553  0.9807  0.7283
 2278SOL    HW2 8285   4.728   0.486   0.911  0.2881  0.5396  0.4504
 2279SOL     OW 8286   0.118   2.336   3.922 -0.3530 -0.6680 -0.0882
 2279SOL    HW1 8287   0.188   2.305   3.979 -0.4670 -2.3795 -0.8105
 2279SOL    HW2 8288   0.132   2.290   3.839 -1.7193 -0.2585 -0.5789
 2280SOL     OW 8289   1.937   3.807   4.824 -0.2028 -0.5347  0.7237
 2280SOL    HW1 8290   1.894   3.850   4.750  2.3284  0.7936 -0.0921
 2280SOL    HW2 8291   1.988   3.736   4.785  1.6439  0.5565  1.0304
 2281SOL     OW 8292   5.439   6.712   6.711  0.1803 -0.0145 -0.3321
 2281SOL    HW1 8293   5.467   6.781   6.771  0.3135  0.9073 -1.4117
 2281SOL    HW2 8294   5.520   6.679   6.673  0.0598 -0.1499 -0.4718
 2282SOL     OW 8295   2.014   3.525   6.277 -0.5819  0.3478  0.7458
 2282SOL    HW1 8296   2.046   3.438   6.255  0.1245  0.9686 -0.8266
 2282SOL    HW2 8297   1.920   3.521   6.259 -0.6541 -0.2517  1.2414
 2283SOL     OW 8298   5.178   6.232   6.898 -0.3672 -0.1730  0.5596
 2283SOL    HW1 8299   5.169   6.138   6.883 -1.2737 -0.0557  0.2841
 2283SOL    HW2 8300   5.098   6.270   6.860  0.8023  0.8975 -0.9812
 2284SOL     OW 8301   4.493   4.473   4.675  0.2370  0.6402  0.3377
 2284SOL    HW1 8302   4.421   4.416   4.649  0.6074  0.4131 -0.2153
 2284SOL    HW2 8303   4.459   4.523   4.750  0.4381 -1.4867  1.9611
 2285SOL     OW 8304   3.004   4.476   6.257  0.0553 -0.5142 -0.0014
 2285SOL    HW1 8305   3.091   4.483   6.218  0.5822  0.9474  1.3301
 2285SOL    HW2 8306   3.016   4.417   6.332 -0.1652 -0.5718 -0.0111
 2286SOL     OW 8307   2.795   5.846   4.130  0.4041  0.6380 -0.1874
 2286SOL    HW1 8308   2.737   5.770   4.140  0.7407  0.2025 -1.3359
 2286SOL    HW2 8309   2.852   5.843   4.207  1.3100 -1.0995 -0.8441
 2287SOL     OW 8310   0.639   5.955   0.745 -0.1325  0.7993 -0.1201
 2287SOL    HW1 8311   0.706   5.887   0.744 -0.8180  0.0696  1.0903
 2287SOL    HW2 8312   0.678   6.027   0.794  0.4792  1.1757 -1.1321
 2288SOL     OW 8313   1.062   6.577   0.667 -0.1798  0.1072  0.8094
 2288SOL    HW1 8314   0.989   6.626   0.706  0.1584  1.8275 -0.5905
 2288SOL    HW2 8315   1.055   6.594   0.573 -1.6874 -4.8711 -0.2508
 2289SOL     OW 8316   3.395   0.729   1.035 -0.5390 -0.2556 -0.2562
 2289SOL    HW1 8317   3.307   0.759   1.058 -0.0248  0.0573  1.4515
 2289SOL    HW2 8318   3.395   0.726   0.939 -2.2208  0.2755 -0.3076
 2290SOL     OW 8319   6.835   5.059   4.013 -0.5446 -0.0203  0.2491
 2290SOL    HW1 8320   6.809   5.055   3.921  0.0995  0.8127  0.0228
 2290SOL    HW2 8321   6.900   4.989   4.023  0.6950  1.0002 -0.3813
 2291SOL     OW 8322   2.678   4.834   0.607 -0.3234  0.1982 -0.9233
 2291SOL    HW1 8323   2.700   4.872   0.692 -1.6897  0.6033 -0.7308
 2291SOL    HW2 8324   2.595   4.874   0.583 -0.7174 -1.0360 -1.7461
 2292SOL     OW 8325   0.846   7.019   3.806  0.2814 -0.1258 -0.2667
 2292SOL    HW1 8326   0.837   7.099   3.754 -1.4351 -0.8254 -1.1546
 2292SOL    HW2 8327   0.908   6.965   3.758 -0.9092 -0.5567 -1.3809
 2293SOL     OW 8328   4.971   6.904   5.756 -0.1620 -0.3757  0.0120
 2293SOL    HW1 8329   4.910   6.961   5.709  1.6618  1.2463 -0.4956
 2293SOL    HW2 8330   4.958   6.817   5.717 -0.0839  0.5287 -2.1396
 2294SOL     OW 8331   0.982   4.163   1.720 -0.3144  0.2626 -0.4504
 2294SOL    HW1 8332   0.937   4.117   1.649  0.3979  1.3409 -1.6417
 2294SOL    HW2 8333   0.924   4.153   1.796 -1.4522 -0.2817 -1.3672
 2295SOL     OW 8334   2.765   5.229   6.622  0.3491  0.1965  0.1516
 2295SOL    HW1 8335   2.720   5.265   6.698 -0.6951 -0.9788  0.1094
 2295SOL    HW2 8336   2.804   5.148   6.652  2.2110  1.0169  0.0934
 2296SOL     OW 8337   3.590   4.527   6.072 -0.1337  0.1712  0.3385
 2296SOL    HW1 8338   3.532   4.515   5.997 -0.8375  0.4386  0.8308
 2296SOL    HW2 8339   3.676   4.499   6.040 -0.6074 -0.6285 -0.2727
 2297SOL     OW 8340   2.338   6.526   2.084  0.3032  0.3669 -0.1289
 2297SOL    HW1 8341   2.246   6.535   2.110 -0.4677 -0.1484 -2.4398
 2297SOL    HW2 8342   2.371   6.616   2.084 -0.3929  0.6350  0.0460
 2298SOL     OW 8343   1.260   3.154   0.431 -0.7135  0.6291  0.4140
 2298SOL    HW1 8344   1.209   3.092   0.378  0.6423  0.7820 -1.1664
 2298SOL    HW2 8345   1.320   3.099   0.481  1.5498  0.5434 -2.1047
 2299SOL     OW 8346   1.995   5.150   1.965 -0.0799 -0.3326  0.4310
 2299SOL    HW1 8347   1.957   5.213   2.026 -1.3753 -0.5516 -0.1128
 2299SOL    HW2 8348   1.932   5.078   1.963  0.0921 -0.4603 -0.9467
 2300SOL     OW 8349   1.963   6.840   5.782  0.2994  0.0305  0.0034
 2300SOL    HW1 8350   1.873   6.870   5.798  0.5945  0.6282  0.5739
 2300SOL    HW2 8351   1.958   6.796   5.697 -0.3551  0.8575 -0.4069
 2301SOL     OW 8352   1.169   6.003   1.750  0.0033 -0.1036 -0.4929
 2301SOL    HW1 8353   1.160   5.928   1.691  0.7353 -1.9575  1.6359
 2301SOL    HW2 8354   1.259   6.032   1.737 -0.0298 -0.0945 -0.7183
 2302SOL     OW 8355   2.069   0.526   4.208 -0.0889 -0.0695 -0.4364
 2302SOL    HW1 8356   2.081   0.447   4.155  0.1138 -0.3053 -0.0443
 2302SOL    HW2 8357   2.093   0.499   4.297 -0.3996  0.3286 -0.2292
 2303SOL     OW 8358   4.049   5.932   5.282  0.5437  0.0882  0.6317
 2303SOL    HW1 8359   3.969   5.906   5.328  1.9864 -1.6636  2.2987
 2303SOL    HW2 8360   4.084   5.850   5.247  1.7274  0.8011  0.0896
 2304SOL     OW 8361   0.384   1.715   3.214  0.2777  0.1766  0.1056
 2304SOL    HW1 8362   0.468   1.673   3.234  1.3037  1.2692 -1.6964
 2304SOL    HW2 8363   0.342   1.657   3.151 -0.5260 -0.5438  1.2593
 2305SOL     OW 8364   5.809   0.194   4.475 -0.3105  0.2353 -0.3509
 2305SOL    HW1 8365   5.726   0.191   4.522  0.8361  0.8196  1.8459
 2305SOL    HW2 8366   5.868   0.241   4.533  2.3791 -2.6504 -0.4785
 2306SOL     OW 8367   4.553   1.514   0.682  0.4166  0.4044 -0.6852
 2306SOL    HW1 8368   4.537   1.605   0.709 -0.3359  0.7090 -2.0623
 2306SOL    HW2 8369   4.471   1.468   0.701  0.3802  0.2987 -1.0814
 2307SOL     OW 8370   0.561   5.794   3.529  0.2039 -0.2288 -0.3037
 2307SOL    HW1 8371   0.583   5.746   3.609  0.0566  1.2910  0.6811
 2307SOL    HW2 8372   0.603   5.743   3.459  2.9811  0.0246  1.0194
 2308SOL     OW 8373   0.471   1.358   2.385 -0.5643  0.1003  0.1692
 2308SOL    HW1 8374   0.386   1.400   2.371 -0.7592 -0.6460 -1.0617
 2308SOL    HW2 8375   0.453   1.265   2.375 -0.3550 -0.4909  3.9768
 2309SOL     OW 8376   4.529   2.279   6.585  0.2340  0.3246  0.1593
 2309SOL    HW1 8377   4.559   2.358   6.541  0.5098  1.2964  1.9950
 2309SOL    HW2 8378   4.592   2.212   6.561 -0.2284  0.5163 -1.7505
 2310SOL     OW 8379   3.233   2.548   2.551 -0.3114  0.0506  0.1780
 2310SOL    HW1 8380   3.314   2.528   2.504 -0.7941 -1.5534 -0.0277
 2310SOL    HW2 8381   3.215   2.639   2.528  2.0642  0.8703  1.2408
 2311SOL     OW 8382   4.845   2.268   3.863 -0.3115 -0.1519 -0.1552
 2311SOL    HW1 8383   4.775   2.204   3.873 -0.1556 -0.4176 -0.7311
 2311SOL    HW2 8384   4.856   2.305   3.950  0.9088 -2.2791  0.6747
 2312SOL     OW 8385   0.988   5.517   0.592  0.3294  0.7812 -0.4275
 2312SOL    HW1 8386   1.007   5.492   0.502  0.1507  1.2212 -0.5918
 2312SOL    HW2 8387   0.999   5.437   0.643  0.5101  0.5509 -0.8300
 2313SOL     OW 8388   3.540   4.225   6.318  0.7273  0.2521 -0.3239
 2313SOL    HW1 8389   3.483   4.170   6.264  1.2690 -1.4865  0.7820
 2313SOL    HW2 8390   3.622   4.175   6.325  0.8169  0.5923  1.7385
 2314SOL     OW 8391   1.095   5.524   4.885  0.4539 -0.2537  0.6328
 2314SOL    HW1 8392   1.126   5.444   4.928  0.5162 -1.1776 -1.0291
 2314SOL    HW2 8393   1.123   5.514   4.794 -0.2949  1.2821  0.2003
 2315SOL     OW 8394   3.146   2.100   3.692  0.1720  0.2000  0.4172
 2315SOL    HW1 8395   3.083   2.119   3.761  0.7839  0.4030  0.9301
 2315SOL    HW2 8396   3.127   2.164   3.623 -0.6313 -0.1919  0.2572
 2316SOL     OW 8397   3.266   4.217   6.023  0.3100  0.1490  0.1475
 2316SOL    HW1 8398   3.298   4.144   5.970  2.2151  0.7554  0.3752
 2316SOL    HW2 8399   3.196   4.256   5.971  0.1690 -1.0270 -0.5756
 2317SOL     OW 8400   6.712   5.827   6.991  0.0752 -0.4085  0.1031
 2317SOL    HW1 8401   6.797   5.784   6.984  0.9111  0.9950  1.0967
 2317SOL    HW2 8402   6.731   5.911   7.032 -1.7923 -0.0186  0.2590
 2318SOL     OW 8403   4.868   4.015   3.911  0.4187  0.1429 -0.3595
 2318SOL    HW1 8404   4.811   4.068   3.856 -0.2591 -0.0785  0.1086
 2318SOL    HW2 8405   4.845   4.040   4.001 -2.0498 -2.9205  0.0528
 2319SOL     OW 8406   7.083   5.122   4.625 -0.5930 -0.2703  0.5639
 2319SOL    HW1 8407   7.146   5.150   4.691 -0.7991 -1.2822  1.2166
 2319SOL    HW2 8408   6.999   5.116   4.672 -0.8813 -0.3327  0.0540
 2320SOL     OW 8409   5.520   6.170   4.959 -0.2444 -0.7521  0.2400
 2320SOL    HW1 8410   5.558   6.241   4.908 -0.4238 -0.2970  0.7257
 2320SOL    HW2 8411   5.589   6.103   4.962  0.6418  0.1684  1.3283
 2321SOL     OW 8412   1.057   3.397   1.662 -1.2074  0.1263  0.1854
 2321SOL    HW1 8413   1.069   3.384   1.568 -1.5671 -0.4331  0.2082
 2321SOL    HW2 8414   1.086   3.315   1.702  2.1202  1.4937  0.8697
 2322SOL     OW 8415   3.242   0.047   0.671 -0.0741 -0.4480  0.5178
 2322SOL    HW1 8416   3.192  -0.024   0.712  1.5156 -1.9332  0.0290
 2322SOL    HW2 8417   3.243   0.116   0.736 -0.3079 -1.5190  1.7075
 2323SOL     OW 8418   1.399   1.222   3.210  0.6471  0.6034 -0.4514
 2323SOL    HW1 8419   1.312   1.200   3.178 -0.3267 -0.3201  2.4740
 2323SOL    HW2 8420   1.459   1.186   3.145 -1.0744  1.4792 -2.6752
 2324SOL     OW 8421   3.111   1.537   2.308 -0.3683 -0.1165 -0.3893
 2324SOL    HW1 8422   3.037   1.593   2.283  0.3373  0.4773 -1.1718
 2324SOL    HW2 8423   3.119   1.475   2.237 -0.2712 -0.3466 -0.1787
 2325SOL     OW 8424   4.839   7.113   5.105  0.0748 -0.1900 -0.2104
 2325SOL    HW1 8425   4.760   7.148   5.147  0.6506  1.4768 -0.4563
 2325SOL    HW2 8426   4.807   7.070   5.026 -0.7767 -1.3531  0.7227
 2326SOL     OW 8427   6.319   0.614   3.317  0.2265 -0.4192  0.1261
 2326SOL    HW1 8428   6.283   0.609   3.228  1.6240 -0.8291 -0.4502
 2326SOL    HW2 8429   6.347   0.706   3.326  0.2910 -0.4307  0.0484
 2327SOL     OW 8430   3.374   0.988   4.603  0.5653  0.1628  0.0767
 2327SOL    HW1 8431   3.319   0.911   4.593  1.1305 -0.5558  1.9533
 2327SOL    HW2 8432   3.335   1.036   4.677  0.2573  1.6647 -1.0136
 2328SOL     OW 8433   3.581   3.019   5.926  0.7389  0.0764 -0.4135
 2328SOL    HW1 8434   3.662   3.056   5.891  1.5023 -0.5126  0.6673
 2328SOL    HW2 8435   3.583   3.041   6.020  0.0690 -0.6643 -0.2097
 2329SOL     OW 8436   1.831   6.317   5.571  0.1571 -0.4680 -0.6426
 2329SOL    HW1 8437   1.819   6.239   5.625  1.4432 -0.0955  0.2261
 2329SOL    HW2 8438   1.926   6.325   5.562  0.0223  0.6382 -1.2649
 2330SOL     OW 8439   0.258   0.054   0.565  0.1524  0.1886  0.6444
 2330SOL    HW1 8440   0.256   0.130   0.508 -0.1654  1.1673  1.9175
 2330SOL    HW2 8441   0.193  -0.006   0.527  0.0120  0.7771 -0.0634
 2331SOL     OW 8442   4.426   2.859   5.042  0.1075  0.1494 -0.7384
 2331SOL    HW1 8443   4.474   2.939   5.022 -2.3961  1.6253 -1.2731
 2331SOL    HW2 8444   4.407   2.865   5.135  0.3655 -0.0712 -0.6727
 2332SOL     OW 8445   2.484   5.887   4.984  0.3380 -0.0810  0.4885
 2332SOL    HW1 8446   2.430   5.960   5.014  0.6106  1.3200 -2.0836
 2332SOL    HW2 8447   2.421   5.818   4.964 -0.3971  0.8497 -0.6186
 2333SOL     OW 8448   1.120   6.012   2.226  0.1130  0.2292  0.1519
 2333SOL    HW1 8449   1.163   6.096   2.210  0.4753  0.2162  1.0112
 2333SOL    HW2 8450   1.075   5.992   2.144  1.5031  0.3888 -0.6846
 2334SOL     OW 8451   6.038   3.961   0.024  0.0676 -0.4970 -0.4963
 2334SOL    HW1 8452   5.979   3.895   0.062  0.0019 -0.3906 -0.4110
 2334SOL    HW2 8453   6.031   3.949  -0.070  0.9589 -1.4076 -0.4626
 2335SOL     OW 8454   1.466   4.147   0.816 -0.4406  0.2509  0.4655
 2335SOL    HW1 8455   1.514   4.222   0.849  0.6444 -1.2187  2.4387
 2335SOL    HW2 8456   1.525   4.108   0.750 -0.3519  0.3043  0.5131
 2336SOL     OW 8457   1.562   2.922   6.205 -0.0905 -0.0296  0.0164
 2336SOL    HW1 8458   1.644   2.971   6.202 -0.1778  0.5167  3.1145
 2336SOL    HW2 8459   1.589   2.830   6.207  0.3045  0.0525 -1.0370
 2337SOL     OW 8460   4.203   5.777   5.530  0.3075 -0.5351 -0.2072
 2337SOL    HW1 8461   4.167   5.864   5.547 -0.6974 -1.2345  1.5721
 2337SOL    HW2 8462   4.175   5.757   5.440 -0.6697  0.4170 -0.1364
 2338SOL     OW 8463   3.404   2.617   2.054 -0.6025 -0.3997  0.7082
 2338SOL    HW1 8464   3.467   2.688   2.043 -1.1182 -0.0545 -0.0741
 2338SOL    HW2 8465   3.324   2.661   2.082 -1.5973 -0.3654 -1.9465
 2339SOL     OW 8466   1.951   6.268   2.720 -0.5238  0.1474 -0.2327
 2339SOL    HW1 8467   2.020   6.238   2.661 -0.5356 -0.5592  0.1040
 2339SOL    HW2 8468   1.962   6.363   2.723  0.0184  0.1056 -0.6952
 2340SOL     OW 8469   7.019   2.871   3.822  0.0517  0.0119  0.1641
 2340SOL    HW1 8470   6.999   2.921   3.901 -0.9181  0.6321 -0.4505
 2340SOL    HW2 8471   7.097   2.820   3.844 -0.0551  0.3733  1.4255
 2341SOL     OW 8472   4.937   5.644   2.649 -0.1271  0.1392 -0.1211
 2341SOL    HW1 8473   4.949   5.583   2.577  1.0359 -0.0394  0.2140
 2341SOL    HW2 8474   4.881   5.597   2.711  1.7122 -1.0973  0.6838
 2342SOL     OW 8475   4.213   5.045   6.585  0.2108  0.0565 -0.2373
 2342SOL    HW1 8476   4.253   5.034   6.499 -0.8980  0.3213 -0.8093
 2342SOL    HW2 8477   4.201   5.140   6.594  1.3622  0.1390  0.7217
 2343SOL     OW 8478   3.275   2.851   1.344  0.4258 -0.4247 -0.3960
 2343SOL    HW1 8479   3.224   2.776   1.373  0.2232 -0.3940 -0.6711
 2343SOL    HW2 8480   3.250   2.864   1.253  1.4350 -0.8384 -0.7460
 2344SOL     OW 8481   0.599   0.047   3.982 -0.6994  0.0358  0.3987
 2344SOL    HW1 8482   0.681   0.096   3.985 -0.8350  0.4488 -1.4067
 2344SOL    HW2 8483   0.565   0.050   4.071 -0.6736  3.2188  0.4069
 2345SOL     OW 8484   3.650   6.314   4.251 -0.0396  0.2393  0.2578
 2345SOL    HW1 8485   3.733   6.291   4.209 -0.0765  2.3443 -1.1222
 2345SOL    HW2 8486   3.653   6.270   4.336  1.1010 -2.2398 -0.9760
 2346SOL     OW 8487   4.319   5.761   6.049 -0.2388 -0.2364 -0.4117
 2346SOL    HW1 8488   4.370   5.764   6.130  0.1719 -1.0452 -0.6282
 2346SOL    HW2 8489   4.229   5.776   6.077 -0.0207  0.1431  0.1076
 2347SOL     OW 8490   0.541   4.397   5.343 -1.0252 -0.4586  0.2171
 2347SOL    HW1 8491   0.628   4.363   5.323 -0.1994  1.3480  0.5531
 2347SOL    HW2 8492   0.489   4.319   5.363  0.9429 -1.5106  1.6274
 2348SOL     OW 8493   4.344   5.444   4.559  0.3426  0.6401  0.0363
 2348SOL    HW1 8494   4.375   5.355   4.542 -0.2419  0.4820 -0.2393
 2348SOL    HW2 8495   4.257   5.432   4.597  0.8950  1.0564  1.4967
 2349SOL     OW 8496   6.251   5.768   0.224 -0.5458  0.8678  0.2375
 2349SOL    HW1 8497   6.336   5.776   0.180 -0.5869  3.3549  0.4699
 2349SOL    HW2 8498   6.194   5.726   0.159  0.8335 -0.8352  0.0868
 2350SOL     OW 8499   6.857   1.733   3.929 -0.3426 -0.1222 -0.3456
 2350SOL    HW1 8500   6.951   1.747   3.918 -0.2297 -0.9162 -0.4059
 2350SOL    HW2 8501   6.845   1.639   3.918 -0.9064 -0.2769  1.2683
 2351SOL     OW 8502   1.083   3.539   6.317  0.2441  0.4133  0.2355
 2351SOL    HW1 8503   1.155   3.599   6.297  0.9145 -0.7482 -0.9141
 2351SOL    HW2 8504   1.097   3.464   6.260 -2.4906  0.6027 -0.8480
 2352SOL     OW 8505   1.552   5.843   0.426  0.7818 -0.3421 -0.4079
 2352SOL    HW1 8506   1.633   5.893   0.427 -0.3206  1.5635  0.8147
 2352SOL    HW2 8507   1.570   5.765   0.479  1.7667  0.1328 -0.0399
 2353SOL     OW 8508   4.510   0.107   6.415 -0.4227 -0.0579  0.7573
 2353SOL    HW1 8509   4.473   0.180   6.465 -2.7348  0.3884 -1.4209
 2353SOL    HW2 8510   4.474   0.117   6.327  1.3597 -2.3168 -0.3390
 2354SOL     OW 8511   5.980   4.215   3.844 -0.1303  0.0282  0.3849
 2354SOL    HW1 8512   6.015   4.302   3.824 -1.0834  0.4165  0.3737
 2354SOL    HW2 8513   6.025   4.189   3.924  0.6010  0.2778  0.0613
 2355SOL     OW 8514   0.993   5.708   4.505  0.3842 -0.2083  0.1260
 2355SOL    HW1 8515   1.018   5.796   4.477  1.8468 -0.6590 -0.0373
 2355SOL    HW2 8516   0.898   5.705   4.490  0.6737  0.4586 -2.3821
 2356SOL     OW 8517   3.760   5.760   2.337  0.1132 -0.4407  0.1973
 2356SOL    HW1 8518   3.798   5.833   2.387  2.4169 -1.2483 -0.2659
 2356SOL    HW2 8519   3.673   5.791   2.312  0.2695  1.3659  1.6830
 2357SOL     OW 8520   2.218   6.978   0.013 -0.1163  0.2815 -0.5423
 2357SOL    HW1 8521   2.247   6.887   0.001 -0.0382  0.0853  0.9649
 2357SOL    HW2 8522   2.210   6.988   0.107 -1.1521  1.5408 -0.7418
 2358SOL     OW 8523   2.817   4.572   2.811  0.5492  0.1418 -0.3243
 2358SOL    HW1 8524   2.808   4.577   2.716 -0.4165  1.1561 -0.2083
 2358SOL    HW2 8525   2.905   4.538   2.826  0.1868 -1.4667 -1.5849
 2359SOL     OW 8526   0.735   3.311   1.705  0.2225 -0.2767 -0.0451
 2359SOL    HW1 8527   0.766   3.369   1.636 -0.8253 -0.7693 -0.9557
 2359SOL    HW2 8528   0.698   3.235   1.659  0.1459 -0.9473  1.0739
 2360SOL     OW 8529   1.067   3.683   2.448  0.1279 -0.0513 -0.6530
 2360SOL    HW1 8530   1.156   3.657   2.473  0.2444  0.2698 -0.7299
 2360SOL    HW2 8531   1.011   3.628   2.501  0.3755 -0.2626 -0.6085
 2361SOL     OW 8532   3.999   0.733   5.083  0.3759 -0.1299 -0.4767
 2361SOL    HW1 8533   3.937   0.799   5.052 -0.0536  0.5382  1.6680
 2361SOL    HW2 8534   3.947   0.671   5.133  1.2131 -0.4741 -0.0109
 2362SOL     OW 8535   0.936   1.751   0.412  0.4286  0.4398 -0.1751
 2362SOL    HW1 8536   0.843   1.737   0.429  1.0118 -1.6289  1.8109
 2362SOL    HW2 8537   0.950   1.717   0.324 -0.4058 -1.1036  0.2434
 2363SOL     OW 8538   4.564   0.872   0.969  0.4062  0.1416  0.5638
 2363SOL    HW1 8539   4.580   0.843   0.880 -2.3406 -0.8042  0.2739
 2363SOL    HW2 8540   4.604   0.958   0.974 -1.0864  1.1355 -2.2929
 2364SOL     OW 8541   5.066   1.571   6.937  0.2473 -0.0103 -0.1415
 2364SOL    HW1 8542   5.078   1.618   7.020 -1.6970  0.6725 -0.2076
 2364SOL    HW2 8543   5.105   1.485   6.952 -0.4544 -0.0605  1.6425
 2365SOL     OW 8544   6.337   1.168   1.110 -0.2560 -0.3684 -0.8549
 2365SOL    HW1 8545   6.342   1.219   1.029 -1.8044 -0.6974 -1.1927
 2365SOL    HW2 8546   6.307   1.082   1.081  1.7720 -1.3433 -0.2267
 2366SOL     OW 8547   3.027   3.144   4.701  0.6094  0.1831 -0.0641
 2366SOL    HW1 8548   2.956   3.176   4.645  0.2394 -1.6056 -0.6784
 2366SOL    HW2 8549   2.993   3.152   4.790  0.2803  0.8299 -0.2378
 2367SOL     OW 8550   3.375   5.879   4.743 -0.2284  0.2411 -0.5811
 2367SOL    HW1 8551   3.352   5.787   4.751  0.5492  0.1154  0.4550
 2367SOL    HW2 8552   3.393   5.907   4.833 -0.9448  1.5398 -0.8096
 2368SOL     OW 8553   5.997   0.472   5.547  0.3468 -0.4938 -0.2913
 2368SOL    HW1 8554   5.944   0.431   5.615  1.2568  2.2500  2.2635
 2368SOL    HW2 8555   5.933   0.507   5.485 -1.0095  2.0554  2.3011
 2369SOL     OW 8556   1.464   5.336   6.913  0.3014 -0.1239  0.2033
 2369SOL    HW1 8557   1.475   5.372   7.001 -1.0986  0.2706  0.2533
 2369SOL    HW2 8558   1.370   5.317   6.907  0.6593 -1.7844 -0.6001
 2370SOL     OW 8559   4.692   0.637   5.666  0.0600 -0.2530  0.4486
 2370SOL    HW1 8560   4.622   0.577   5.691  1.2042 -1.7556  0.2073
 2370SOL    HW2 8561   4.760   0.581   5.629  1.8411  1.0173  1.6081
 2371SOL     OW 8562   3.856   4.544   5.172 -0.1140 -0.1007  0.1208
 2371SOL    HW1 8563   3.872   4.475   5.107 -0.3750 -0.0741  0.0262
 2371SOL    HW2 8564   3.917   4.525   5.243  0.6929  0.2955 -0.4530
 2372SOL     OW 8565   5.528   5.728   5.294  0.0913 -0.4895  0.0343
 2372SOL    HW1 8566   5.618   5.739   5.264  0.4887  0.0633  1.3648
 2372SOL    HW2 8567   5.532   5.656   5.357 -0.5310 -0.9135 -0.3976
 2373SOL     OW 8568   2.947   3.122   6.118 -0.4081  0.1474  0.4020
 2373SOL    HW1 8569   2.893   3.088   6.190  0.7355  0.3012  1.3602
 2373SOL    HW2 8570   3.037   3.109   6.147  0.1178  2.9507  0.3515
 2374SOL     OW 8571   6.554   3.277   0.252  0.0094  0.0147 -0.4372
 2374SOL    HW1 8572   6.519   3.347   0.306 -1.8786 -0.9152 -0.3659
 2374SOL    HW2 8573   6.575   3.207   0.313  0.4063 -0.0547 -0.6498
 2375SOL     OW 8574   3.558   5.213   3.588 -0.2142 -0.5204  0.5531
 2375SOL    HW1 8575   3.566   5.218   3.683  0.1350  0.5751  0.4855
 2375SOL    HW2 8576   3.639   5.253   3.555 -0.6573 -0.2124 -0.1935
 2376SOL     OW 8577   3.173   0.992   6.765 -0.2352 -0.6922  0.3538
 2376SOL    HW1 8578   3.168   0.918   6.826 -3.5700 -0.8699  0.0680
 2376SOL    HW2 8579   3.184   0.951   6.679 -1.8517 -0.8986  0.2204
 2377SOL     OW 8580   0.644   6.911   2.343 -0.3525  0.3551  0.2817
 2377SOL    HW1 8581   0.581   6.939   2.410 -1.1585  0.0023 -0.3198
 2377SOL    HW2 8582   0.639   6.815   2.344  0.5237  0.2980  0.5462
 2378SOL     OW 8583   5.085   6.980   1.030 -0.3613 -0.2228  0.3149
 2378SOL    HW1 8584   5.029   6.904   1.013  2.0244 -2.2017  0.7816
 2378SOL    HW2 8585   5.169   6.958   0.990  0.8148  1.6048  1.6280
 2379SOL     OW 8586   6.070   6.013   5.691  0.1163 -0.1577 -0.3578
 2379SOL    HW1 8587   6.029   5.929   5.670 -0.4283 -0.1749  0.7047
 2379SOL    HW2 8588   6.128   5.992   5.765 -2.8893  1.0449  2.5718
 2380SOL     OW 8589   5.839   6.930   2.600  0.4657 -0.4740 -0.2621
 2380SOL    HW1 8590   5.782   6.854   2.616 -0.5555 -0.1158 -2.0231
 2380SOL    HW2 8591   5.827   6.985   2.678 -2.3570  0.0284 -0.9635
 2381SOL     OW 8592   4.207   2.622   5.421  0.5684  0.0010 -0.4085
 2381SOL    HW1 8593   4.242   2.533   5.418  0.0133 -0.2107 -2.3395
 2381SOL    HW2 8594   4.276   2.677   5.383  0.7306  0.3532  0.3619
 2382SOL     OW 8595   6.482   4.204   5.175  0.1901  0.1534 -0.3618
 2382SOL    HW1 8596   6.477   4.140   5.104  1.2511 -0.6379  0.2423
 2382SOL    HW2 8597   6.484   4.151   5.255  0.6708  0.9537  0.1732
 2383SOL     OW 8598   5.180   6.827   4.247  0.0888  0.2919 -0.1021
 2383SOL    HW1 8599   5.170   6.760   4.179 -0.9752 -0.0545  0.3699
 2383SOL    HW2 8600   5.176   6.910   4.200  1.5003  0.0405 -0.7078
 2384SOL     OW 8601   2.930   1.088   5.650 -0.0113  0.3405 -0.5998
 2384SOL    HW1 8602   2.852   1.114   5.700 -1.0776 -0.7757 -1.6038
 2384SOL    HW2 8603   2.905   1.102   5.559  0.6493 -0.8099 -0.9791
 2385SOL     OW 8604   5.368   1.472   5.331 -0.3863  0.1013  0.8736
 2385SOL    HW1 8605   5.395   1.564   5.334 -1.2590  0.4027  0.0581
 2385SOL    HW2 8606   5.273   1.475   5.344 -1.1161 -0.2676 -3.2719
 2386SOL     OW 8607   4.492   4.022   6.003  0.0957 -0.0209 -0.3281
 2386SOL    HW1 8608   4.572   4.067   6.031 -0.1764 -0.4730  1.2495
 2386SOL    HW2 8609   4.518   3.931   5.991 -0.0206 -0.0208 -0.6089
 2387SOL     OW 8610   6.065   6.879   5.133 -0.1405  0.1365  0.2955
 2387SOL    HW1 8611   6.018   6.957   5.105 -1.9767 -0.8623  0.4140
 2387SOL    HW2 8612   6.026   6.856   5.217 -0.6991 -1.7030 -0.4101
 2388SOL     OW 8613   2.512   5.227   5.330 -0.1447  0.2166  0.4281
 2388SOL    HW1 8614   2.521   5.253   5.422 -0.3877 -0.8503  0.7737
 2388SOL    HW2 8615   2.441   5.282   5.297  1.0987  1.8676  0.3522
 2389SOL     OW 8616   2.359   0.291   6.435  0.6692  0.2685 -0.1809
 2389SOL    HW1 8617   2.321   0.224   6.493 -1.5460  1.2564 -0.3774
 2389SOL    HW2 8618   2.450   0.265   6.425  0.2953 -1.7816  1.0869
 2390SOL     OW 8619   2.593   3.656   3.683 -0.2523  0.5662  0.0574
 2390SOL    HW1 8620   2.591   3.677   3.589 -1.4750  0.6097  0.0672
 2390SOL    HW2 8621   2.664   3.593   3.692  1.4727  2.3330 -0.4963
 2391SOL     OW 8622   3.104   1.398   0.358  0.0410 -0.6349 -0.2183
 2391SOL    HW1 8623   3.189   1.441   0.354  1.3797 -3.0078  0.5731
 2391SOL    HW2 8624   3.102   1.341   0.281 -1.7072  0.7583 -1.2901
 2392SOL     OW 8625   2.785   4.438   0.438  0.5852 -0.0301 -0.3450
 2392SOL    HW1 8626   2.691   4.430   0.452  0.8317  0.3745  1.7803
 2392SOL    HW2 8627   2.796   4.521   0.392  0.0463  1.0970  1.4765
 2393SOL     OW 8628   0.069   2.726   1.836  0.5031 -0.3708 -0.4687
 2393SOL    HW1 8629   0.033   2.640   1.859 -0.4335 -0.3070 -1.5926
 2393SOL    HW2 8630   0.156   2.727   1.875  0.1954 -1.4876  0.2979
 2394SOL     OW 8631   6.637   6.576   3.778 -0.5836  0.1554 -0.0769
 2394SOL    HW1 8632   6.658   6.639   3.848 -0.1309  0.0934 -0.1508
 2394SOL    HW2 8633   6.661   6.621   3.698  0.6955 -0.4687 -0.0721
 2395SOL     OW 8634   4.725   0.440   5.400 -0.1925  0.3655 -0.3943
 2395SOL    HW1 8635   4.793   0.381   5.433  0.7924  2.5308  1.7942
 2395SOL    HW2 8636   4.645   0.409   5.442 -0.4199 -1.4402 -2.0110
 2396SOL     OW 8637   2.348   0.017   4.493 -0.1677  0.0623 -0.1423
 2396SOL    HW1 8638   2.369   0.102   4.530  1.0446 -0.5799  0.7460
 2396SOL    HW2 8639   2.338  -0.040   4.570 -2.2450 -0.3433 -0.6647
 2397SOL     OW 8640   2.139   0.608   2.279 -0.1523 -0.4693 -0.0593
 2397SOL    HW1 8641   2.198   0.590   2.206  0.1363  0.5347 -0.0773
 2397SOL    HW2 8642   2.125   0.522   2.319  1.2786 -0.7335 -0.0730
 2398SOL     OW 8643   2.364   3.453   2.559  0.0201  0.4748 -0.7167
 2398SOL    HW1 8644   2.390   3.533   2.605 -0.3641  0.4388 -0.4364
 2398SOL    HW2 8645   2.447   3.409   2.538  0.1920  0.3089  0.2657
 2399SOL     OW 8646   3.782   0.141   4.241 -0.0579 -0.4522 -0.5674
 2399SOL    HW1 8647   3.816   0.221   4.281  2.1978 -0.9508 -1.3903
 2399SOL    HW2 8648   3.740   0.170   4.160 -1.2505  0.1118  0.2230
 2400SOL     OW 8649   5.536   1.405   2.550  0.2556  0.1370 -0.1153
 2400SOL    HW1 8650   5.617   1.416   2.501  0.2835 -0.1410 -0.1311
 2400SOL    HW2 8651   5.533   1.312   2.572 -0.7270 -0.1443 -1.3031
 2401SOL     OW 8652   1.735   0.537   3.673 -0.2226 -0.3389 -0.1483
 2401SOL    HW1 8653   1.808   0.558   3.614 -0.0882 -0.5630 -0.0611
 2401SOL    HW2 8654   1.741   0.443   3.687 -0.8217 -0.4384 -0.5255
 2402SOL     OW 8655   4.389   6.347   4.835 -0.3428  0.2302 -0.4070
 2402SOL    HW1 8656   4.484   6.345   4.848 -0.4857 -0.5422  0.7420
 2402SOL    HW2 8657   4.358   6.268   4.880 -1.6045  0.9055 -0.0499
 2403SOL     OW 8658   1.828   0.424   5.907  0.0750  0.2991  0.4396
 2403SOL    HW1 8659   1.845   0.448   5.998  1.8091 -0.6034  0.3969
 2403SOL    HW2 8660   1.787   0.337   5.912 -1.5685  1.0299  0.3936
 2404SOL     OW 8661   6.844   1.911   4.161 -0.3127 -0.1086  0.1090
 2404SOL    HW1 8662   6.870   2.001   4.140  0.9032  0.0523  2.0758
 2404SOL    HW2 8663   6.826   1.871   4.076  0.9139  1.4632 -0.9528
 2405SOL     OW 8664   1.770   6.047   0.965 -0.3314 -0.1599  0.4249
 2405SOL    HW1 8665   1.694   6.069   1.019 -0.5609 -1.4933  0.6786
 2405SOL    HW2 8666   1.788   6.127   0.916 -0.2070  1.0457  2.3579
 2406SOL     OW 8667   2.638   6.424   1.097 -0.5743  0.6933  0.0185
 2406SOL    HW1 8668   2.584   6.419   1.176  0.2492  0.6851  0.5953
 2406SOL    HW2 8669   2.587   6.478   1.036 -0.9083  1.2927  0.8137
 2407SOL     OW 8670   5.406   1.366   0.278  0.3658  0.1855 -0.0889
 2407SOL    HW1 8671   5.431   1.415   0.357 -1.3361 -1.5703  1.6619
 2407SOL    HW2 8672   5.316   1.391   0.261  0.6564  0.4078 -1.4253
 2408SOL     OW 8673   3.193   1.967   5.771 -0.3822  0.2176  1.0512
 2408SOL    HW1 8674   3.265   1.905   5.760 -0.5175  0.3452 -0.8779
 2408SOL    HW2 8675   3.169   1.991   5.682 -1.0958  2.1774  1.7279
 2409SOL     OW 8676   4.025   6.973   5.887 -0.1214  0.0452  0.3122
 2409SOL    HW1 8677   3.993   7.062   5.871 -0.2839  0.0829  0.8488
 2409SOL    HW2 8678   3.952   6.928   5.928  0.5691  0.1994  1.7660
 2410SOL     OW 8679   4.712   5.856   0.907  0.5221  0.3192  0.0755
 2410SOL    HW1 8680   4.785   5.819   0.857 -0.5411  1.9866 -2.9705
 2410SOL    HW2 8681   4.754   5.909   0.975  2.1765  0.5923 -1.0876
 2411SOL     OW 8682   3.497   3.243   1.968  0.1373 -0.3630 -0.6934
 2411SOL    HW1 8683   3.448   3.167   1.999 -0.0511  0.1291  0.2401
 2411SOL    HW2 8684   3.437   3.317   1.978  0.6884  0.0783 -0.5529
 2412SOL     OW 8685   0.727   2.976   0.331 -0.1147  0.4872  0.0097
 2412SOL    HW1 8686   0.692   2.922   0.402 -1.3178  0.6381 -0.4455
 2412SOL    HW2 8687   0.724   2.920   0.254  0.1367  0.6900 -0.1491
 2413SOL     OW 8688   0.272   6.791   0.747 -0.9989  0.4207 -0.2620
 2413SOL    HW1 8689   0.321   6.729   0.802 -0.5018  1.3145  0.3192
 2413SOL    HW2 8690   0.340   6.841   0.702 -1.3540  1.6176  0.4838
 2414SOL     OW 8691   1.973   0.138   5.971  0.3675  0.6529  0.0213
 2414SOL    HW1 8692   1.989   0.228   5.943 -0.1319  0.7980  0.2009
 2414SOL    HW2 8693   2.035   0.086   5.920  0.9498  1.1411  0.2285
 2415SOL     OW 8694   5.614   1.964   1.074 -0.1685  0.2061 -0.7362
 2415SOL    HW1 8695   5.655   1.899   1.132 -1.2269 -0.4729 -0.7066
 2415SOL    HW2 8696   5.657   1.951   0.990 -0.8958 -1.1117 -0.9420
 2416SOL     OW 8697   3.548   4.942   5.014 -0.3166  0.4425  0.0852
 2416SOL    HW1 8698   3.543   4.938   5.110  0.0037 -0.1850  0.0848
 2416SOL    HW2 8699   3.457   4.947   4.986 -0.3780  1.5622  0.4461
 2417SOL     OW 8700   4.025   6.284   4.465 -0.8286 -0.3968 -0.0029
 2417SOL    HW1 8701   3.978   6.228   4.527 -0.6890 -1.4655 -0.8220
 2417SOL    HW2 8702   4.082   6.223   4.417 -0.2628  0.5420 -0.5474
 2418SOL     OW 8703   1.890   6.732   2.929  0.4275 -0.0445 -0.3167
 2418SOL    HW1 8704   1.857   6.701   2.845  0.7177  0.4578 -0.6177
 2418SOL    HW2 8705   1.814   6.771   2.972  0.6332  1.1755 -1.0380
 2419SOL     OW 8706   2.010   0.633   0.843 -0.3257 -0.6407 -0.6587
 2419SOL    HW1 8707   2.033   0.723   0.866  0.2545 -1.4415  2.4513
 2419SOL    HW2 8708   2.083   0.603   0.788  0.4443  0.2465 -0.1607
 2420SOL     OW 8709   4.258   6.593   2.664 -0.5226 -0.6774  0.1299
 2420SOL    HW1 8710   4.164   6.607   2.668 -0.3456  0.8037 -0.1188
 2420SOL    HW2 8711   4.271   6.538   2.586 -1.0270  1.0759 -1.2643
 2421SOL     OW 8712   1.727   3.965   4.177 -0.4979 -0.2553  0.1927
 2421SOL    HW1 8713   1.723   3.996   4.268  0.9084  0.7648 -0.0616
 2421SOL    HW2 8714   1.670   3.888   4.176 -1.0153  0.0581  1.7922
 2422SOL     OW 8715   2.594   4.331   3.780 -0.1437 -1.0281  0.1695
 2422SOL    HW1 8716   2.624   4.293   3.698 -1.5006 -0.3749 -0.6562
 2422SOL    HW2 8717   2.500   4.312   3.783 -0.7231  1.4553  0.1286
 2423SOL     OW 8718   6.026   2.248   0.096  0.3178  0.2160  0.4494
 2423SOL    HW1 8719   6.089   2.177   0.086 -0.5264 -0.4504 -0.3552
 2423SOL    HW2 8720   5.977   2.247   0.014  0.0474  1.4933  0.5836
 2424SOL     OW 8721   3.493   5.001   4.044  0.4586  0.0733 -0.0343
 2424SOL    HW1 8722   3.407   5.011   4.003 -0.2827  0.7038  1.5851
 2424SOL    HW2 8723   3.529   4.922   4.004 -1.7947 -1.4786  0.7415
 2425SOL     OW 8724   1.255   2.701   6.044 -0.4416  0.4363 -0.5451
 2425SOL    HW1 8725   1.265   2.766   6.113  1.1093 -0.1451 -0.1848
 2425SOL    HW2 8726   1.234   2.752   5.966  0.2803  1.3426 -0.1678
 2426SOL     OW 8727   3.708   1.492   4.354 -0.2776 -0.1514  0.6655
 2426SOL    HW1 8728   3.741   1.529   4.436 -0.7904  1.4881  0.1724
 2426SOL    HW2 8729   3.641   1.554   4.325 -1.2327 -1.5299 -0.2022
 2427SOL     OW 8730   6.329   3.927   5.578 -0.0846 -0.2021  0.1020
 2427SOL    HW1 8731   6.339   3.906   5.671 -2.1614  0.9789  0.6614
 2427SOL    HW2 8732   6.284   3.851   5.541  0.2200 -0.4256  0.1883
 2428SOL     OW 8733   2.789   5.171   0.452  0.3933  0.1447  0.1200
 2428SOL    HW1 8734   2.826   5.258   0.464  0.8694 -0.0367 -0.0066
 2428SOL    HW2 8735   2.729   5.181   0.378 -0.5983  0.6695  0.9564
 2429SOL     OW 8736   7.001   4.136   1.693  0.8209 -0.2417  0.5036
 2429SOL    HW1 8737   6.917   4.164   1.657  2.1006  0.7833 -1.9387
 2429SOL    HW2 8738   6.985   4.048   1.726 -1.3070  0.1149  0.5446
 2430SOL     OW 8739   4.548   2.642   2.173  0.2022  0.5342 -0.1320
 2430SOL    HW1 8740   4.621   2.683   2.128  0.8090  0.3938  0.6953
 2430SOL    HW2 8741   4.535   2.696   2.251 -0.0095  0.0545  0.1688
 2431SOL     OW 8742   0.762   4.144   0.957  0.0281 -0.1684 -0.3603
 2431SOL    HW1 8743   0.666   4.149   0.962 -0.0156 -0.8565 -0.3805
 2431SOL    HW2 8744   0.782   4.154   0.864 -0.0034  0.2708 -0.3204
 2432SOL     OW 8745   6.933   0.540   0.191 -0.6027 -0.3465  1.1004
 2432SOL    HW1 8746   6.918   0.597   0.116 -1.1135 -1.0668  0.6481
 2432SOL    HW2 8747   6.882   0.580   0.262  2.1496  2.0164  1.9636
 2433SOL     OW 8748   2.940   6.546   6.563  0.3051  0.6566 -0.3210
 2433SOL    HW1 8749   2.901   6.625   6.525 -0.3188 -0.1681 -1.4390
 2433SOL    HW2 8750   2.872   6.479   6.554  0.1181  0.3802  2.2349
 2434SOL     OW 8751   0.341   4.788   2.509 -0.3397  0.2442 -0.1027
 2434SOL    HW1 8752   0.260   4.807   2.461 -0.1478 -0.6179 -0.7879
 2434SOL    HW2 8753   0.339   4.694   2.524  0.1353  0.3411  0.6379
 2435SOL     OW 8754   1.931   3.160   1.079  0.0207 -0.2206  0.1612
 2435SOL    HW1 8755   1.963   3.251   1.077 -1.8747  0.4729 -1.4531
 2435SOL    HW2 8756   1.864   3.159   1.148  0.5420 -0.6080  0.6755
 2436SOL     OW 8757   2.820   2.653   1.969  0.4150  0.5324  0.0492
 2436SOL    HW1 8758   2.880   2.660   1.894  1.0997  1.4489  0.6565
 2436SOL    HW2 8759   2.767   2.732   1.965 -1.4320 -0.6843 -0.9971
 2437SOL     OW 8760   0.436   3.701   4.411 -0.6757 -0.0683  0.0856
 2437SOL    HW1 8761   0.447   3.695   4.316  0.6099  0.1930  0.1953
 2437SOL    HW2 8762   0.373   3.632   4.432 -0.9006 -0.2031 -0.9394
 2438SOL     OW 8763   1.074   0.641   7.108 -0.2962  0.1376 -0.1283
 2438SOL    HW1 8764   1.159   0.609   7.139 -0.2346  2.0447  1.9110
 2438SOL    HW2 8765   1.011   0.605   7.170 -0.5310  1.6147  0.5314
 2439SOL     OW 8766   4.328   5.090   0.035 -0.0643  0.3099  0.4129
 2439SOL    HW1 8767   4.240   5.053   0.029 -0.1192  0.4286  0.4832
 2439SOL    HW2 8768   4.340   5.136  -0.048 -0.4088  1.0379  0.7551
 2440SOL     OW 8769   4.205   6.556   5.668  0.0448 -0.1514 -0.1271
 2440SOL    HW1 8770   4.281   6.542   5.724  0.6716  0.0493 -0.9004
 2440SOL    HW2 8771   4.181   6.648   5.682 -0.7576 -0.5007  0.9413
 2441SOL     OW 8772   2.300   5.023   4.303  0.2092 -0.0207  0.5927
 2441SOL    HW1 8773   2.239   4.959   4.340  0.4287 -1.0712 -0.7335
 2441SOL    HW2 8774   2.387   4.982   4.314  0.3436 -0.0180 -0.3358
 2442SOL     OW 8775   3.473   0.340   2.181 -0.5539  0.2307  0.1369
 2442SOL    HW1 8776   3.405   0.371   2.122  0.0222  1.5019  0.0974
 2442SOL    HW2 8777   3.538   0.300   2.124  0.2592  1.9338 -0.2132
 2443SOL     OW 8778   3.119   6.224   6.374  0.0632  0.7614  0.1368
 2443SOL    HW1 8779   3.096   6.310   6.339  0.2879  1.1578  0.9386
 2443SOL    HW2 8780   3.203   6.203   6.333 -0.2596  0.6679 -0.4861
 2444SOL     OW 8781   3.136   0.504   0.810 -0.4346 -0.0393 -0.3818
 2444SOL    HW1 8782   3.122   0.503   0.905 -1.2879  0.2991 -0.4985
 2444SOL    HW2 8783   3.195   0.577   0.796 -2.5461  1.7635 -0.3807
 2445SOL     OW 8784   3.485   6.277   3.218  0.5934 -0.2374  0.6346
 2445SOL    HW1 8785   3.575   6.253   3.200  1.1363  0.6132  2.0615
 2445SOL    HW2 8786   3.442   6.277   3.132  1.2833 -3.1146  0.1817
 2446SOL     OW 8787   0.916   4.607   2.197 -0.3542 -0.1909 -0.3046
 2446SOL    HW1 8788   0.862   4.536   2.161  0.0166 -1.0445  0.7574
 2446SOL    HW2 8789   0.865   4.686   2.179 -0.4144 -0.6036 -2.2289
 2447SOL     OW 8790   6.252   3.589   1.120  0.1350 -0.1387 -0.0367
 2447SOL    HW1 8791   6.273   3.615   1.030  1.8068 -2.4534 -0.4285
 2447SOL    HW2 8792   6.172   3.537   1.112  0.6229 -0.8679 -0.3192
 2448SOL     OW 8793   6.786   3.223   4.236 -0.8401  0.7356  0.1096
 2448SOL    HW1 8794   6.709   3.269   4.269 -1.1333 -0.2429  0.8274
 2448SOL    HW2 8795   6.806   3.159   4.304 -0.0006  0.2998 -0.5409
 2449SOL     OW 8796   2.355   6.585   5.492 -0.1667 -0.5264 -0.0544
 2449SOL    HW1 8797   2.427   6.641   5.464  0.6238 -1.7341 -0.4897
 2449SOL    HW2 8798   2.321   6.627   5.571  1.7198 -0.5189  0.7970
 2450SOL     OW 8799   1.775   2.701   5.878  0.3387  0.7180 -0.4949
 2450SOL    HW1 8800   1.687   2.715   5.843 -0.0160 -1.3446 -0.5518
 2450SOL    HW2 8801   1.769   2.725   5.970 -0.5415 -0.2046 -0.2968
 2451SOL     OW 8802   3.590   0.495   6.724 -0.3944 -0.1739  0.0283
 2451SOL    HW1 8803   3.666   0.553   6.724  0.1790 -0.8077 -2.4718
 2451SOL    HW2 8804   3.574   0.476   6.816  1.4936  1.2526  0.7002
 2452SOL     OW 8805   1.289   6.721   4.742  0.4392 -0.3158 -0.0024
 2452SOL    HW1 8806   1.264   6.727   4.650 -2.5961 -0.1058  0.7562
 2452SOL    HW2 8807   1.292   6.628   4.761 -0.8968 -0.3377  0.1479
 2453SOL     OW 8808   0.150   2.050   1.185 -0.0567 -0.1397 -0.0917
 2453SOL    HW1 8809   0.079   2.083   1.240  0.7065  0.4382  0.5871
 2453SOL    HW2 8810   0.213   2.013   1.247 -0.3125 -1.7801 -0.7572
 2454SOL     OW 8811   0.619   5.579   0.690  0.0974 -0.4301 -0.0128
 2454SOL    HW1 8812   0.638   5.519   0.618  2.4068  1.2203 -0.8973
 2454SOL    HW2 8813   0.579   5.655   0.648  0.7258  0.2157  0.5352
 2455SOL     OW 8814   1.116   2.429   2.728  0.0055 -0.7877 -0.2132
 2455SOL    HW1 8815   1.085   2.338   2.724  2.5173 -1.9746  2.7541
 2455SOL    HW2 8816   1.203   2.426   2.689 -0.3241  0.6515 -1.1246
 2456SOL     OW 8817   6.481   4.091   6.031  0.0187  0.0166 -0.2197
 2456SOL    HW1 8818   6.549   4.130   5.977 -0.0524  1.1102  0.4616
 2456SOL    HW2 8819   6.441   4.024   5.975  0.3628  0.6939 -1.2941
 2457SOL     OW 8820   7.034   4.424   1.791 -0.1464 -0.2702 -0.3066
 2457SOL    HW1 8821   7.032   4.348   1.732  3.1334  0.4086 -1.4851
 2457SOL    HW2 8822   7.126   4.451   1.793 -0.7664  2.1331  2.1339
 2458SOL     OW 8823   1.349   3.622   5.358  0.4596  0.1556  0.5585
 2458SOL    HW1 8824   1.354   3.639   5.264  1.2417 -2.0720  0.1414
 2458SOL    HW2 8825   1.256   3.614   5.376  0.3513 -1.8631 -0.5767
 2459SOL     OW 8826   0.068   4.173   1.347 -0.3552  0.7979  0.6276
 2459SOL    HW1 8827   0.011   4.099   1.368  0.9180 -0.3499  0.2028
 2459SOL    HW2 8828   0.059   4.185   1.253  0.8509 -0.0726  0.3789
 2460SOL     OW 8829   6.628   2.999   5.238  0.1849  0.3534  0.0047
 2460SOL    HW1 8830   6.720   3.020   5.253  0.0102  0.3094  1.2571
 2460SOL    HW2 8831   6.626   2.903   5.238  0.1228  0.3531  0.1731
 2461SOL     OW 8832   2.883   1.452   6.721 -0.4061 -0.3962  0.0321
 2461SOL    HW1 8833   2.835   1.534   6.712 -0.7041 -0.5968 -0.2393
 2461SOL    HW2 8834   2.819   1.384   6.699  0.2297 -0.6212 -1.1993
 2462SOL     OW 8835   5.616   3.624   3.260 -0.1253  1.2244  0.1095
 2462SOL    HW1 8836   5.697   3.576   3.274  0.4721  1.8947 -0.9909
 2462SOL    HW2 8837   5.642   3.705   3.217 -1.2840  1.8551  0.5365
 2463SOL     OW 8838   5.989   3.365   4.141 -0.3582 -0.4644 -0.3869
 2463SOL    HW1 8839   5.927   3.438   4.144 -0.3006 -0.4378  0.4207
 2463SOL    HW2 8840   6.073   3.405   4.163 -0.6839 -1.1138  2.4715
 2464SOL     OW 8841   4.508   3.342   2.909  0.0356  0.1079  0.1075
 2464SOL    HW1 8842   4.474   3.393   2.982 -0.0857  0.2104 -0.0190
 2464SOL    HW2 8843   4.445   3.357   2.838  0.8202  1.0241 -0.4180
 2465SOL     OW 8844   3.055   5.913   0.408  0.0181  0.0737  0.1404
 2465SOL    HW1 8845   2.995   5.845   0.438  1.4933 -1.1582  0.4349
 2465SOL    HW2 8846   3.031   5.928   0.316  0.4425 -1.7566 -0.3084
 2466SOL     OW 8847   6.058   2.108   4.389  0.0915  0.4711  0.0579
 2466SOL    HW1 8848   6.108   2.134   4.467  1.6106 -0.1763 -0.6554
 2466SOL    HW2 8849   6.095   2.162   4.319 -1.0193  0.7915 -0.2954
 2467SOL     OW 8850   1.966   4.928   4.157  0.0227 -0.1064 -0.1853
 2467SOL    HW1 8851   1.962   4.938   4.253  2.2998 -0.8530  0.0324
 2467SOL    HW2 8852   2.052   4.890   4.140 -0.4561 -0.2805 -2.5355
 2468SOL     OW 8853   6.482   6.709   0.506 -0.4457  0.3095 -0.1615
 2468SOL    HW1 8854   6.387   6.699   0.517 -0.5053  1.4771  0.5675
 2468SOL    HW2 8855   6.501   6.797   0.539  1.0673 -0.3549  0.8607
 2469SOL     OW 8856   1.284   0.417   6.201 -0.1410  0.2138 -0.5637
 2469SOL    HW1 8857   1.323   0.411   6.113 -0.6846 -0.1408 -0.7893
 2469SOL    HW2 8858   1.275   0.511   6.217 -0.8462  0.2756 -1.2602
 2470SOL     OW 8859   1.121   1.759   1.882 -0.4872  0.2319 -0.1397
 2470SOL    HW1 8860   1.088   1.834   1.831  1.6649  1.2055 -0.2227
 2470SOL    HW2 8861   1.138   1.692   1.816 -0.2221  0.5302 -0.3818
 2471SOL     OW 8862   1.858   3.296   5.669  0.1708 -0.3795  0.1550
 2471SOL    HW1 8863   1.937   3.245   5.655  1.0029 -0.2847  3.5460
 2471SOL    HW2 8864   1.802   3.241   5.723 -1.4788  0.1528 -0.9062
 2472SOL     OW 8865   2.321   2.038   4.951 -0.0818 -0.1798 -0.0338
 2472SOL    HW1 8866   2.233   2.013   4.922  0.4449 -0.9401 -1.0665
 2472SOL    HW2 8867   2.326   2.007   5.041 -0.4038 -1.4297 -0.4203
 2473SOL     OW 8868   5.908   1.702   4.821  0.4451  0.3985 -0.1456
 2473SOL    HW1 8869   6.001   1.706   4.798  0.7884 -0.3012  0.9908
 2473SOL    HW2 8870   5.908   1.696   4.917 -0.7981  0.8807 -0.0939
 2474SOL     OW 8871   6.238   2.775   0.688  0.5507  0.1571  0.0982
 2474SOL    HW1 8872   6.176   2.744   0.621  0.4464  1.1948 -0.2961
 2474SOL    HW2 8873   6.297   2.834   0.641  1.1298  0.0774  0.7144
 2475SOL     OW 8874   3.155   6.000   3.290 -0.3779 -0.4198 -0.3183
 2475SOL    HW1 8875   3.182   6.091   3.297 -0.5088 -0.3047 -1.2697
 2475SOL    HW2 8876   3.087   5.990   3.357 -0.2694  0.1352 -0.1213
 2476SOL     OW 8877   4.757   3.973   0.486  0.5038 -0.0665 -0.2988
 2476SOL    HW1 8878   4.703   3.895   0.472  2.7788 -2.4007  2.6638
 2476SOL    HW2 8879   4.838   3.941   0.524  1.7449  3.7464  0.8045
 2477SOL     OW 8880   4.241   4.551   3.781  0.0203  0.1881 -0.1970
 2477SOL    HW1 8881   4.164   4.499   3.802 -0.4476  1.1743  0.6094
 2477SOL    HW2 8882   4.285   4.502   3.712 -1.5244 -0.1982 -0.9513
 2478SOL     OW 8883   6.142   2.443   5.355 -0.7912 -0.2177 -0.3654
 2478SOL    HW1 8884   6.225   2.467   5.398  0.8236 -0.5735 -3.0306
 2478SOL    HW2 8885   6.102   2.380   5.414  0.1430  0.9756  1.6596
 2479SOL     OW 8886   5.471   6.603   4.214 -0.0209 -0.4468 -0.0909
 2479SOL    HW1 8887   5.507   6.531   4.265  1.8737  0.5903  0.1559
 2479SOL    HW2 8888   5.505   6.589   4.125 -1.4875 -1.0478 -0.5761
 2480SOL     OW 8889   2.419   5.364   0.729 -0.3767  0.3139 -0.1072
 2480SOL    HW1 8890   2.512   5.347   0.741 -0.7579 -1.0701  1.1954
 2480SOL    HW2 8891   2.397   5.320   0.647 -0.0346 -0.0362 -0.0151
 2481SOL     OW 8892   2.887   2.441   5.542  0.6172  0.3525  0.0762
 2481SOL    HW1 8893   2.867   2.433   5.636 -0.5382 -0.1266 -0.1898
 2481SOL    HW2 8894   2.979   2.418   5.535  0.3220 -1.2334  0.9062
 2482SOL     OW 8895   5.970   4.285   2.199 -0.4334 -0.1789  0.4224
 2482SOL    HW1 8896   5.967   4.202   2.151  0.5945  0.8365 -1.5391
 2482SOL    HW2 8897   5.902   4.338   2.158  0.8391  0.9075 -0.3692
 2483SOL     OW 8898   2.660   4.410   1.088  0.0825  1.0804  0.2168
 2483SOL    HW1 8899   2.629   4.330   1.046  0.1634  1.2728 -0.2118
 2483SOL    HW2 8900   2.696   4.462   1.017  0.9565  1.0650  0.6382
 2484SOL     OW 8901   4.272   2.391   0.936  0.0197  0.1812 -0.6372
 2484SOL    HW1 8902   4.362   2.382   0.905  0.6557 -0.1219  1.1241
 2484SOL    HW2 8903   4.221   2.332   0.880  0.7432  1.0141 -2.2247
 2485SOL     OW 8904   1.881   0.726   4.505 -0.1878 -0.2828  0.4539
 2485SOL    HW1 8905   1.927   0.652   4.544  0.5332 -0.6573 -1.0611
 2485SOL    HW2 8906   1.794   0.692   4.486 -0.2753 -0.3408  0.9268
 2486SOL     OW 8907   2.732   2.251   0.499  0.1945 -0.1523 -0.0872
 2486SOL    HW1 8908   2.766   2.295   0.421 -0.2026  0.0980 -0.1259
 2486SOL    HW2 8909   2.767   2.162   0.494 -0.9811 -0.5953 -1.3358
 2487SOL     OW 8910   3.090   5.499   5.203 -0.1982  0.0628  0.2734
 2487SOL    HW1 8911   3.117   5.523   5.292 -1.3328  0.0954  0.6314
 2487SOL    HW2 8912   3.137   5.417   5.185  1.5547  1.0697  0.1161
 2488SOL     OW 8913   1.430   6.919   3.817 -0.3270  0.6150 -0.2671
 2488SOL    HW1 8914   1.462   6.961   3.898  0.6651  0.8597 -0.7607
 2488SOL    HW2 8915   1.464   6.830   3.821  1.3155  1.1427 -1.2349
 2489SOL     OW 8916   6.401   4.186   1.792 -0.2547  0.3313 -0.8228
 2489SOL    HW1 8917   6.407   4.279   1.813  2.1585  0.3685 -1.4343
 2489SOL    HW2 8918   6.451   4.176   1.711 -0.6518 -1.4688 -0.8907
 2490SOL     OW 8919   6.508   2.602   2.947 -0.4710  0.0362  0.1427
 2490SOL    HW1 8920   6.485   2.541   2.877  0.8971  0.1594 -0.4391
 2490SOL    HW2 8921   6.432   2.659   2.955 -0.1100  0.9983 -2.3254
 2491SOL     OW 8922   6.748   4.042   2.924  0.0153 -0.1747  0.3313
 2491SOL    HW1 8923   6.671   4.098   2.911  0.8638  0.9344 -0.0726
 2491SOL    HW2 8924   6.809   4.097   2.973  0.6578 -0.9573  0.4252
 2492SOL     OW 8925   7.099   7.023   4.142  0.0936 -0.3661  0.3393
 2492SOL    HW1 8926   7.038   7.092   4.117  0.7366 -0.2354 -0.9113
 2492SOL    HW2 8927   7.179   7.069   4.167 -0.7074 -0.4351  3.4265
 2493SOL     OW 8928   6.400   2.580   4.197 -0.1493  0.2854  0.0947
 2493SOL    HW1 8929   6.376   2.493   4.231 -0.1036  0.1390 -0.2407
 2493SOL    HW2 8930   6.491   2.570   4.170  0.0206  0.5936  0.5568
 2494SOL     OW 8931   2.191   1.984   6.681  0.3038  0.1200  0.6258
 2494SOL    HW1 8932   2.106   2.002   6.642  0.7569 -1.1287 -1.0545
 2494SOL    HW2 8933   2.191   1.890   6.696  0.8017  0.3301  2.1527
 2495SOL     OW 8934   2.448   2.086   6.840 -0.3875 -0.0399 -0.3013
 2495SOL    HW1 8935   2.386   2.027   6.882 -0.9463  0.3682 -0.5376
 2495SOL    HW2 8936   2.395   2.161   6.812 -0.1408 -0.5124 -2.1798
 2496SOL     OW 8937   5.859   4.868   3.548  0.1441 -0.0320 -0.3780
 2496SOL    HW1 8938   5.777   4.898   3.588  0.5461  0.2286  0.2600
 2496SOL    HW2 8939   5.831   4.802   3.484 -0.7349  1.4366 -1.5962
 2497SOL     OW 8940   4.382   0.617   4.675 -0.3827 -0.5651 -0.4688
 2497SOL    HW1 8941   4.327   0.564   4.733  1.8845 -1.4457  1.0231
 2497SOL    HW2 8942   4.410   0.556   4.607 -0.7820 -0.2515 -0.9248
 2498SOL     OW 8943   5.972   3.541   2.750  0.1508  0.1820 -0.0288
 2498SOL    HW1 8944   5.879   3.560   2.765 -0.4493 -0.4336 -2.4812
 2498SOL    HW2 8945   5.998   3.489   2.826 -2.1259 -1.3868 -0.2115
 2499SOL     OW 8946   6.289   3.432   6.986  0.2862 -0.7333  0.6566
 2499SOL    HW1 8947   6.374   3.391   7.005  1.3344  0.6530 -0.7649
 2499SOL    HW2 8948   6.297   3.521   7.021 -0.9278 -0.8442  1.2749
 2500SOL     OW 8949   6.552   3.278   3.371  0.1773  0.1471 -0.6116
 2500SOL    HW1 8950   6.499   3.229   3.308 -0.7823 -0.7879  0.8518
 2500SOL    HW2 8951   6.626   3.222   3.390  1.0005  0.8583 -1.6137
 2501SOL     OW 8952   5.094   1.648   1.489  0.5517 -0.1919  0.6744
 2501SOL    HW1 8953   5.077   1.661   1.396  0.5634  1.3353  0.8708
 2501SOL    HW2 8954   5.186   1.625   1.494  0.9151  1.1292  0.4049
 2502SOL     OW 8955   5.203   3.992   1.289 -0.2390 -0.0089 -0.2466
 2502SOL    HW1 8956   5.228   3.900   1.280 -0.2516 -0.0214 -0.1562
 2502SOL    HW2 8957   5.276   4.032   1.336 -0.7796 -0.2345  0.8098
 2503SOL     OW 8958   3.205   6.415   3.920 -0.2974 -0.1169  0.6117
 2503SOL    HW1 8959   3.177   6.391   4.008  0.4038 -0.1496  0.8316
 2503SOL    HW2 8960   3.297   6.437   3.929 -0.9838  3.3129  0.5407
 2504SOL     OW 8961   0.451   5.505   5.087 -0.0231 -0.3795  0.0738
 2504SOL    HW1 8962   0.522   5.559   5.054 -0.2876  0.0971  0.2770
 2504SOL    HW2 8963   0.374   5.562   5.086 -0.0949 -0.4316  1.2484
 2505SOL     OW 8964   3.517   1.515   6.639 -0.1136  0.2005  0.1115
 2505SOL    HW1 8965   3.550   1.451   6.702  0.3977  0.8251  0.4906
 2505SOL    HW2 8966   3.446   1.469   6.594  0.9425 -1.0235 -0.3826
 2506SOL     OW 8967   2.566   5.241   5.853  0.5361  0.4338 -0.5609
 2506SOL    HW1 8968   2.613   5.162   5.880 -0.9677  0.0796  1.1913
 2506SOL    HW2 8969   2.587   5.306   5.920 -2.5857 -0.2060  1.2596
 2507SOL     OW 8970   0.060   4.536   0.158  0.2435 -0.0048  0.2508
 2507SOL    HW1 8971   0.060   4.599   0.229 -0.3950  0.3961 -0.0925
 2507SOL    HW2 8972   0.145   4.547   0.115  1.1728 -1.1500  1.7098
 2508SOL     OW 8973   3.332   0.320   5.653 -1.2032 -0.1698 -0.3358
 2508SOL    HW1 8974   3.362   0.238   5.691 -0.6992  0.0945 -0.1520
 2508SOL    HW2 8975   3.266   0.352   5.714  1.2012  1.3956  1.6037
 2509SOL     OW 8976   3.725   2.326   5.746 -0.1599  0.5521  0.1186
 2509SOL    HW1 8977   3.790   2.361   5.806  1.2991  0.0308 -1.0951
 2509SOL    HW2 8978   3.688   2.250   5.792 -2.6786  2.9419  2.3700
 2510SOL     OW 8979   3.179   2.701   4.154 -0.5137 -0.6410 -0.6127
 2510SOL    HW1 8980   3.154   2.689   4.063 -1.6876 -1.4032 -0.2190
 2510SOL    HW2 8981   3.166   2.614   4.194  0.7188 -0.5194  0.1154
 2511SOL     OW 8982   1.814   0.848   4.869  0.2106  0.2331 -0.2622
 2511SOL    HW1 8983   1.822   0.752   4.870 -1.5484  0.0278 -0.9256
 2511SOL    HW2 8984   1.723   0.864   4.894  0.2578  1.7021 -0.9343
 2512SOL     OW 8985   1.825   2.165   6.145  0.1946  0.3591  0.1979
 2512SOL    HW1 8986   1.818   2.114   6.226 -0.6594  0.8249  0.4383
 2512SOL    HW2 8987   1.752   2.227   6.151 -1.2816 -1.0320 -1.9553
 2513SOL     OW 8988   5.373   0.311   4.964  0.5477 -0.0334  0.3580
 2513SOL    HW1 8989   5.298   0.267   4.923 -0.5296  1.5621  0.5040
 2513SOL    HW2 8990   5.366   0.291   5.057  1.9925 -2.2276  0.0507
 2514SOL     OW 8991   5.906   6.132   0.332 -0.9575  0.8970  0.4388
 2514SOL    HW1 8992   5.873   6.097   0.415 -0.2053 -0.2271  0.2831
 2514SOL    HW2 8993   5.942   6.056   0.286 -1.0919  1.5531 -0.7985
 2515SOL     OW 8994   3.872   3.433   6.232  0.2419 -0.5505 -0.6683
 2515SOL    HW1 8995   3.898   3.435   6.324 -1.3520  1.5342 -0.1789
 2515SOL    HW2 8996   3.953   3.445   6.183  1.1345 -1.8619  0.4187
 2516SOL     OW 8997   3.825   2.706   3.238  0.0747  0.2252  0.3850
 2516SOL    HW1 8998   3.849   2.618   3.210 -0.6232 -0.8639  2.9715
 2516SOL    HW2 8999   3.890   2.728   3.305  0.2538  1.7066 -0.2465
 2517SOL     OW 9000   5.285   6.664   1.412  0.3690 -0.4426 -0.2545
 2517SOL    HW1 9001   5.333   6.598   1.462  1.0604  2.6165  3.6564
 2517SOL    HW2 9002   5.350   6.700   1.351  1.5499 -0.0326  1.1703
 2518SOL     OW 9003   6.745   2.798   3.263 -0.0492 -0.2695  0.1474
 2518SOL    HW1 9004   6.832   2.819   3.297 -0.2911  0.5997  0.2551
 2518SOL    HW2 9005   6.763   2.752   3.180  0.5145  0.3484 -0.0896
 2519SOL     OW 9006   5.102   2.790   2.976 -0.1315  0.4676 -0.1775
 2519SOL    HW1 9007   5.109   2.884   2.988 -0.3329  0.5101 -0.3742
 2519SOL    HW2 9008   5.186   2.755   3.005 -0.5425  0.5682  1.2176
 2520SOL     OW 9009   3.242   3.054   2.926  0.4176  0.4030 -0.0049
 2520SOL    HW1 9010   3.321   3.037   2.873  1.2355 -2.1157  1.8245
 2520SOL    HW2 9011   3.264   3.020   3.012 -2.8251 -0.7412  0.4911
 2521SOL     OW 9012   0.144   0.218   6.052  0.6254 -0.0927  0.1020
 2521SOL    HW1 9013   0.205   0.202   6.124  0.7974 -1.5291 -0.3341
 2521SOL    HW2 9014   0.092   0.137   6.046  1.0807 -0.2878 -1.8223
 2522SOL     OW 9015   1.188   0.165   4.164  0.2026 -0.7176 -0.4948
 2522SOL    HW1 9016   1.202   0.070   4.167  2.0339 -0.4928 -0.7693
 2522SOL    HW2 9017   1.198   0.187   4.071  0.1640 -0.2136 -0.3805
 2523SOL     OW 9018   4.781   1.152   2.716 -0.9318 -0.1634 -0.4332
 2523SOL    HW1 9019   4.752   1.227   2.767  1.6707  0.1922  0.7032
 2523SOL    HW2 9020   4.824   1.095   2.780  0.3831 -0.8319 -1.8396
 2524SOL     OW 9021   1.618   0.059   5.735 -0.7769 -0.1559  0.0561
 2524SOL    HW1 9022   1.630  -0.036   5.745  0.9274  0.1915  2.0249
 2524SOL    HW2 9023   1.705   0.091   5.711 -1.1400  1.0037  0.2473
 2525SOL     OW 9024   4.033   6.701   1.042  0.2055 -0.0818  0.0659
 2525SOL    HW1 9025   4.071   6.788   1.054 -0.1087  0.0637  0.0224
 2525SOL    HW2 9026   3.989   6.682   1.125  1.2522 -0.6970  0.4965
 2526SOL     OW 9027   5.242   5.520   6.318 -1.1146  0.3466 -0.2774
 2526SOL    HW1 9028   5.236   5.589   6.384 -2.3608 -0.6286  0.6811
 2526SOL    HW2 9029   5.155   5.516   6.279 -0.8822 -0.2518 -0.7611
 2527SOL     OW 9030   3.720   1.694   6.698  0.5463  0.2623  0.3141
 2527SOL    HW1 9031   3.652   1.631   6.676  1.3010  0.0013 -1.4619
 2527SOL    HW2 9032   3.711   1.763   6.633  1.4508  0.6292  0.5579
 2528SOL     OW 9033   5.666   0.228   6.402  0.4063  0.4782  0.3149
 2528SOL    HW1 9034   5.743   0.254   6.352  1.2380 -1.7342  0.3048
 2528SOL    HW2 9035   5.593   0.239   6.341  1.5763 -3.7627 -2.2567
 2529SOL     OW 9036   3.605   4.514   4.734  0.4558 -0.0751 -0.1760
 2529SOL    HW1 9037   3.652   4.431   4.724 -1.6786 -1.3155 -0.5227
 2529SOL    HW2 9038   3.645   4.555   4.810  1.7758 -1.2718 -0.1830
 2530SOL     OW 9039   4.121   0.192   2.642  0.0745  0.0141 -0.5088
 2530SOL    HW1 9040   4.197   0.134   2.648 -1.1715 -1.5022  1.2426
 2530SOL    HW2 9041   4.079   0.168   2.559 -0.4347 -1.6343  0.1971
 2531SOL     OW 9042   0.756   6.628   0.024 -0.6939 -0.8473  0.6437
 2531SOL    HW1 9043   0.794   6.547   0.059  1.2392 -1.2472 -2.0268
 2531SOL    HW2 9044   0.678   6.599  -0.024 -0.3819 -1.0566  0.2554
 2532SOL     OW 9045   5.668   4.839   5.750  0.6898 -0.5609 -0.1745
 2532SOL    HW1 9046   5.742   4.779   5.743 -0.0076 -1.3822 -0.5730
 2532SOL    HW2 9047   5.639   4.853   5.660 -0.9687 -1.9438  0.0931
 2533SOL     OW 9048   6.056   1.787   5.443  1.0169 -0.2763 -0.0634
 2533SOL    HW1 9049   6.103   1.852   5.495 -0.8286  1.7105 -0.7257
 2533SOL    HW2 9050   6.097   1.791   5.357  0.6924  0.2906 -0.1979
 2534SOL     OW 9051   1.217   1.608   5.403 -0.3517 -0.3219  0.3824
 2534SOL    HW1 9052   1.273   1.599   5.480 -1.5187  0.4133  1.3491
 2534SOL    HW2 9053   1.267   1.661   5.342  0.1588 -0.0013  1.0768
 2535SOL     OW 9054   0.123   1.108   2.890  0.0379  0.6029  0.4591
 2535SOL    HW1 9055   0.115   1.053   2.968  1.2002 -0.1117  0.1155
 2535SOL    HW2 9056   0.218   1.114   2.875 -0.1363  1.4292 -0.4108
 2536SOL     OW 9057   4.619   4.481   0.270  0.6250  0.6903 -0.0370
 2536SOL    HW1 9058   4.536   4.528   0.280  1.6279  2.0921  2.9564
 2536SOL    HW2 9059   4.674   4.541   0.220  0.2349  0.2721 -0.9898
 2537SOL     OW 9060   1.806   3.577   7.093  0.0383  0.0129 -0.3180
 2537SOL    HW1 9061   1.732   3.522   7.118  0.5754 -0.3717  0.4449
 2537SOL    HW2 9062   1.811   3.568   6.997 -0.2113 -0.8303 -0.2575
 2538SOL     OW 9063   1.245   6.135   0.532  0.2832  0.0517  0.6444
 2538SOL    HW1 9064   1.242   6.215   0.480  3.7895  0.4868  0.8324
 2538SOL    HW2 9065   1.159   6.095   0.521 -1.6931  3.8806  0.6913
 2539SOL     OW 9066   2.104   5.154   2.636 -0.4547 -0.1418 -0.7382
 2539SOL    HW1 9067   2.088   5.063   2.661 -2.0835  0.0334 -1.0336
 2539SOL    HW2 9068   2.152   5.149   2.553  1.3621 -0.7023  0.2877
 2540SOL     OW 9069   0.223   2.312   4.970  0.1189 -0.4721  0.5867
 2540SOL    HW1 9070   0.274   2.388   4.999  2.1382 -0.5390 -2.4357
 2540SOL    HW2 9071   0.242   2.245   5.035  1.0430  0.5770  1.4605
 2541SOL     OW 9072   5.556   6.915   1.567 -0.4695 -0.4360 -0.5782
 2541SOL    HW1 9073   5.490   6.953   1.625 -0.1570 -1.9816  0.8726
 2541SOL    HW2 9074   5.596   6.846   1.619  0.9247 -0.8544 -2.1296
 2542SOL     OW 9075   2.151   3.466   5.548  0.1759 -0.1145  0.1118
 2542SOL    HW1 9076   2.144   3.447   5.642  0.2453  0.6133  0.2699
 2542SOL    HW2 9077   2.118   3.387   5.505  1.2261 -0.9139  0.7281
 2543SOL     OW 9078   1.639   3.268   4.323  0.4074  0.1520  0.5122
 2543SOL    HW1 9079   1.623   3.189   4.271 -0.0088  0.8454 -0.4577
 2543SOL    HW2 9080   1.705   3.242   4.387  2.0976 -0.3921 -1.3137
 2544SOL     OW 9081   0.891   2.723   2.414  0.4365  0.2556  0.0480
 2544SOL    HW1 9082   0.983   2.746   2.409  0.6980 -0.8329 -0.3656
 2544SOL    HW2 9083   0.881   2.681   2.500  0.8322 -1.6181 -0.7606
 2545SOL     OW 9084   1.322   4.788   4.620 -0.0704  0.3513  0.2393
 2545SOL    HW1 9085   1.393   4.762   4.561 -0.6572  1.2386 -0.9068
 2545SOL    HW2 9086   1.366   4.807   4.703  0.7049 -1.4924  0.3054
 2546SOL     OW 9087   0.951   6.733   3.850  0.5373  0.2855 -0.6412
 2546SOL    HW1 9088   0.975   6.769   3.764 -0.9665  1.0383 -0.7676
 2546SOL    HW2 9089   0.866   6.692   3.837  1.2384 -1.4839  0.0264
 2547SOL     OW 9090   2.709   3.740   1.519  0.1779 -0.2315 -0.0363
 2547SOL    HW1 9091   2.801   3.759   1.539 -0.2427  1.6437  0.2926
 2547SOL    HW2 9092   2.664   3.744   1.603 -0.3164 -0.5178 -0.2789
 2548SOL     OW 9093   0.329   4.818   3.402  0.4489  0.3873 -0.2670
 2548SOL    HW1 9094   0.370   4.837   3.317 -0.5222  2.1587 -0.3807
 2548SOL    HW2 9095   0.293   4.730   3.392  0.6521  0.4349 -1.5774
 2549SOL     OW 9096   1.997   6.091   2.247 -0.1333 -0.5026  0.6050
 2549SOL    HW1 9097   1.975   6.001   2.224 -1.0984 -0.2186  0.3886
 2549SOL    HW2 9098   2.092   6.096   2.236 -0.2853 -1.0004 -1.1087
 2550SOL     OW 9099   0.972   2.797   0.574 -0.1229 -0.1749  0.7438
 2550SOL    HW1 9100   1.046   2.763   0.625  1.9007  0.0885 -1.7865
 2550SOL    HW2 9101   0.956   2.884   0.611 -0.4327 -0.9301  2.4900
 2551SOL     OW 9102   3.502   1.720   0.909  0.2004  0.6394 -0.0554
 2551SOL    HW1 9103   3.411   1.716   0.881 -0.2830 -1.0766  1.5891
 2551SOL    HW2 9104   3.549   1.665   0.846  0.0174  1.0453 -0.5524
 2552SOL     OW 9105   1.896   0.770   2.273  0.4667  0.5292 -0.3146
 2552SOL    HW1 9106   1.820   0.715   2.255  0.4709 -0.3384  1.9387
 2552SOL    HW2 9107   1.971   0.711   2.260  0.6437  0.8138 -0.5970
 2553SOL     OW 9108   4.493   4.927   4.979 -0.2853 -0.3843 -0.5888
 2553SOL    HW1 9109   4.463   4.987   4.910 -2.3921 -0.9121 -0.2181
 2553SOL    HW2 9110   4.460   4.966   5.060  0.5599 -0.7288 -0.0749
 2554SOL     OW 9111   5.266   2.139   6.130  0.3794  0.0398  0.4240
 2554SOL    HW1 9112   5.189   2.123   6.183  0.0060  0.6848  0.0968
 2554SOL    HW2 9113   5.279   2.234   6.135  0.2524  0.1385 -0.7343
 2555SOL     OW 9114   2.115   0.322   5.499 -0.5011 -0.2048  0.4914
 2555SOL    HW1 9115   2.023   0.330   5.472  0.1038 -0.8660 -1.9951
 2555SOL    HW2 9116   2.154   0.263   5.434  1.5380 -0.5235  1.9186
 2556SOL     OW 9117   2.160   4.211   4.498  0.2097 -0.4564 -0.2711
 2556SOL    HW1 9118   2.112   4.253   4.427  0.1290  0.0265  0.0576
 2556SOL    HW2 9119   2.250   4.203   4.466  0.1875 -0.1760 -0.4024
 2557SOL     OW 9120   1.984   3.104   3.197  0.0744 -0.3479  0.0347
 2557SOL    HW1 9121   1.972   3.063   3.112  2.7400 -0.5530 -0.3323
 2557SOL    HW2 9122   1.897   3.139   3.220 -0.8999 -1.0415 -2.3260
 2558SOL     OW 9123   5.967   3.472   2.470  0.0511  0.2573  0.2628
 2558SOL    HW1 9124   6.032   3.538   2.445  0.4797 -0.5112 -0.7731
 2558SOL    HW2 9125   5.973   3.467   2.565 -0.7634  2.4553  0.4775
 2559SOL     OW 9126   1.324   2.188   1.082 -0.1199 -0.4878 -0.3449
 2559SOL    HW1 9127   1.249   2.129   1.074 -0.3614 -0.3571  0.9172
 2559SOL    HW2 9128   1.397   2.130   1.106  0.0485 -0.5195 -0.9130
 2560SOL     OW 9129   4.095   4.988   0.035 -0.2119  0.1880 -0.7501
 2560SOL    HW1 9130   4.086   4.908  -0.017 -0.3085  0.2575 -0.8385
 2560SOL    HW2 9131   4.005   5.017   0.050 -0.3457 -1.0343  1.3011
 2561SOL     OW 9132   5.937   5.293   5.437  0.4215 -0.0072  0.0745
 2561SOL    HW1 9133   5.922   5.207   5.478  1.4288 -0.0584  0.3563
 2561SOL    HW2 9134   6.026   5.316   5.461  0.0087  1.3524  0.3875
 2562SOL     OW 9135   3.892   0.793   4.683 -0.5895  0.0335  0.6454
 2562SOL    HW1 9136   3.895   0.699   4.701  3.1226 -0.0918  0.2456
 2562SOL    HW2 9137   3.878   0.799   4.588 -2.8182  0.0466  0.9230
 2563SOL     OW 9138   2.902   5.740   4.394 -0.5108  0.3712 -0.2383
 2563SOL    HW1 9139   2.920   5.805   4.462 -0.3832 -0.3704  0.4654
 2563SOL    HW2 9140   2.825   5.693   4.426  0.5659 -1.1220  0.2755
 2564SOL     OW 9141   0.168   3.690   1.113  0.6348  0.3428 -0.1242
 2564SOL    HW1 9142   0.106   3.659   1.047  1.4606 -0.2669 -0.6128
 2564SOL    HW2 9143   0.144   3.782   1.125 -0.5300  0.0658 -0.1185
 2565SOL     OW 9144   7.050   4.385   7.015 -0.4898  0.1121  0.2397
 2565SOL    HW1 9145   7.000   4.305   7.030  0.1247 -0.5256 -0.9567
 2565SOL    HW2 9146   7.111   4.362   6.945 -0.8896  1.8934 -0.7454
 2566SOL     OW 9147   0.001   1.988   2.886 -0.5466 -0.0262  0.2198
 2566SOL    HW1 9148   0.066   2.009   2.953 -0.0897  0.2477 -0.3040
 2566SOL    HW2 9149   0.032   1.905   2.848  0.1240  0.6703 -0.7979
 2567SOL     OW 9150   1.408   1.041   0.029  0.1956 -0.4787  0.3326
 2567SOL    HW1 9151   1.502   1.030   0.041  0.2313 -0.2397  0.2717
 2567SOL    HW2 9152   1.392   1.134   0.046 -0.2178 -0.7502  1.5941
 2568SOL     OW 9153   6.640   2.203   1.573  0.0240 -0.9939 -0.2741
 2568SOL    HW1 9154   6.599   2.189   1.488  1.8119  2.1280 -1.8103
 2568SOL    HW2 9155   6.581   2.264   1.618  0.9163  0.4026 -0.9160
 2569SOL     OW 9156   1.350   5.953   2.362 -0.1238 -0.6303 -0.2962
 2569SOL    HW1 9157   1.272   5.945   2.307 -1.9709  2.8767  1.4359
 2569SOL    HW2 9158   1.324   5.917   2.447  0.7192 -0.8684 -0.1306
 2570SOL     OW 9159   6.031   3.506   4.861 -0.0392  0.2757  0.6035
 2570SOL    HW1 9160   6.113   3.495   4.813  0.0658  1.5975  0.4452
 2570SOL    HW2 9161   5.971   3.543   4.797 -0.2562  0.9087  1.1591
 2571SOL     OW 9162   6.837   3.915   0.486 -0.6266  0.0622  0.4587
 2571SOL    HW1 9163   6.866   3.934   0.575  0.8092  4.8896 -0.7051
 2571SOL    HW2 9164   6.918   3.918   0.434 -1.7932  1.3562 -1.3944
 2572SOL     OW 9165   1.737   0.673   5.537  0.3321  0.2472  0.1194
 2572SOL    HW1 9166   1.696   0.710   5.614 -0.7374 -1.3238  0.3459
 2572SOL    HW2 9167   1.686   0.595   5.518  0.0737  0.9687 -2.6292
 2573SOL     OW 9168   6.577   3.880   6.489 -0.1895 -0.6300 -0.0279
 2573SOL    HW1 9169   6.496   3.928   6.509 -0.2107 -0.3182 -0.8519
 2573SOL    HW2 9170   6.597   3.903   6.399  0.0890 -1.7720 -0.2687
 2574SOL     OW 9171   0.138   4.720   1.027 -0.1980  0.3748  0.5643
 2574SOL    HW1 9172   0.139   4.672   1.109 -0.5218 -0.8049 -0.1071
 2574SOL    HW2 9173   0.230   4.725   1.001 -0.2273 -0.6289  0.2269
 2575SOL     OW 9174   2.906   0.922   2.044  0.1132 -0.2105 -0.0903
 2575SOL    HW1 9175   2.979   0.878   2.002 -2.3163 -2.0001 -2.7934
 2575SOL    HW2 9176   2.902   1.008   2.002 -1.3972 -1.4545 -2.7746
 2576SOL     OW 9177   3.703   6.068   6.425 -0.2085 -0.0140  0.0035
 2576SOL    HW1 9178   3.722   6.023   6.343  0.0218  1.0587 -0.5569
 2576SOL    HW2 9179   3.778   6.048   6.481  1.6507  2.3776 -1.4225
 2577SOL     OW 9180   5.999   6.676   4.960 -0.5945 -0.2053  0.4243
 2577SOL    HW1 9181   5.956   6.712   4.883  1.1377  0.7876 -0.1433
 2577SOL    HW2 9182   6.038   6.751   5.004 -1.7043 -0.7246  2.4231
 2578SOL     OW 9183   5.141   3.949   2.673 -0.1366 -0.0682 -0.4361
 2578SOL    HW1 9184   5.161   3.865   2.714 -0.3256 -0.2328 -0.6758
 2578SOL    HW2 9185   5.048   3.962   2.691  0.0619  0.4601  0.2580
 2579SOL     OW 9186   0.627   4.360   4.975  0.2870 -0.1355  0.0498
 2579SOL    HW1 9187   0.550   4.404   5.012  1.1850  0.4013  1.3672
 2579SOL    HW2 9188   0.635   4.396   4.887 -1.0254 -0.2747 -0.1373
 2580SOL     OW 9189   0.124   2.951   5.551 -0.5663  0.3371 -0.6608
 2580SOL    HW1 9190   0.152   2.884   5.488 -1.3778 -0.3790 -0.2776
 2580SOL    HW2 9191   0.056   2.908   5.603 -0.4076  1.1517  0.2413
 2581SOL     OW 9192   2.991   4.513   3.882  0.0547 -0.4800  0.2760
 2581SOL    HW1 9193   2.936   4.519   3.803  0.3958  0.6354  0.0976
 2581SOL    HW2 9194   3.010   4.604   3.904 -2.8157 -0.4842  3.6719
 2582SOL     OW 9195   3.797   5.564   4.334  0.0892  0.1560  0.4191
 2582SOL    HW1 9196   3.736   5.577   4.262 -1.1861 -1.5589  1.1194
 2582SOL    HW2 9197   3.745   5.579   4.413  0.6409 -0.9290  1.0194
 2583SOL     OW 9198   3.843   2.056   2.372  0.0694 -0.1655  0.2555
 2583SOL    HW1 9199   3.757   2.020   2.349 -0.6049  1.6645 -0.3207
 2583SOL    HW2 9200   3.861   2.019   2.458 -0.6771 -1.6071 -0.1655
 2584SOL     OW 9201   7.071   1.749   0.083  0.1510 -0.1263  0.4160
 2584SOL    HW1 9202   7.038   1.689   0.150  0.8129  0.9187  1.7168
 2584SOL    HW2 9203   7.161   1.722   0.068  0.0081 -0.3508 -0.0628
 2585SOL     OW 9204   4.238   4.433   4.909 -0.2849 -0.3996  0.4127
 2585SOL    HW1 9205   4.268   4.523   4.898 -2.4512  0.2155 -1.4782
 2585SOL    HW2 9206   4.245   4.416   5.002  1.9196  1.0404  0.5833
 2586SOL     OW 9207   6.355   4.102   2.074 -0.3042  0.0232  0.5580
 2586SOL    HW1 9208   6.381   4.036   2.139  1.3270  1.2382  1.2102
 2586SOL    HW2 9209   6.316   4.172   2.126 -0.8516  0.1507 -0.0104
 2587SOL     OW 9210   6.741   1.051   6.923 -0.5141 -0.2618  0.5244
 2587SOL    HW1 9211   6.693   1.002   6.990  0.6379 -0.5482  1.1658
 2587SOL    HW2 9212   6.830   1.057   6.957  0.4354 -1.4730 -1.5113
 2588SOL     OW 9213   6.854   5.340   2.605  0.6519 -0.1251 -0.9399
 2588SOL    HW1 9214   6.864   5.414   2.665 -1.9465 -0.3713 -0.0611
 2588SOL    HW2 9215   6.938   5.334   2.560  2.0972  1.2349  1.3547
 2589SOL     OW 9216   0.139   4.569   3.355 -0.2934  0.1232 -0.0238
 2589SOL    HW1 9217   0.174   4.528   3.435  0.0435  0.6320  0.0965
 2589SOL    HW2 9218   0.051   4.597   3.379 -0.5424 -0.5702 -0.1211
 2590SOL     OW 9219   2.255   1.363   0.833  0.2339 -0.1916 -0.6017
 2590SOL    HW1 9220   2.304   1.318   0.902 -1.5875 -1.5031 -0.0766
 2590SOL    HW2 9221   2.224   1.444   0.874 -0.9243 -1.0100  0.2107
 2591SOL     OW 9222   0.729   5.325   3.454  0.0069 -0.5680 -0.0292
 2591SOL    HW1 9223   0.691   5.390   3.396 -1.5517 -0.8176  0.6537
 2591SOL    HW2 9224   0.731   5.245   3.401  1.4440 -0.1132 -0.7003
 2592SOL     OW 9225   3.949   2.714   6.371  0.0456  0.1438  0.0161
 2592SOL    HW1 9226   4.031   2.752   6.340 -0.2840  0.2490 -0.7307
 2592SOL    HW2 9227   3.908   2.784   6.422  0.7445 -0.1415  1.0058
 2593SOL     OW 9228   1.879   7.136   1.982  0.1613  0.0393 -0.0875
 2593SOL    HW1 9229   1.889   7.042   1.998 -3.3493 -0.8237 -1.8421
 2593SOL    HW2 9230   1.929   7.152   1.902 -1.2929 -1.0251 -1.2645
 2594SOL     OW 9231   2.450   4.488   6.768 -0.4480 -0.0210 -0.0818
 2594SOL    HW1 9232   2.447   4.460   6.677  1.5208  1.7416 -0.7886
 2594SOL    HW2 9233   2.516   4.431   6.808  0.4946  0.7718 -0.4467
 2595SOL     OW 9234   0.936   5.303   5.697  0.5202 -0.4190  0.0714
 2595SOL    HW1 9235   0.949   5.381   5.644  0.4026 -0.3702  0.1153
 2595SOL    HW2 9236   0.870   5.252   5.650 -0.8130  0.3906  1.0024
 2596SOL     OW 9237   0.460   2.089   5.384 -0.3059 -0.0709 -0.1004
 2596SOL    HW1 9238   0.366   2.103   5.385 -0.1943  0.6844  0.1395
 2596SOL    HW2 9239   0.487   2.102   5.475 -0.0188 -0.6343 -0.1015
 2597SOL     OW 9240   5.721   2.796   4.458  0.2557 -0.6706 -0.2144
 2597SOL    HW1 9241   5.733   2.802   4.553 -0.2687 -0.0994 -0.1774
 2597SOL    HW2 9242   5.803   2.829   4.421 -1.5929  5.3148  0.0080
 2598SOL     OW 9243   5.037   1.200   6.009 -0.2763  0.3791 -0.2881
 2598SOL    HW1 9244   4.967   1.158   6.059  1.1208  0.0084  1.4785
 2598SOL    HW2 9245   5.055   1.281   6.057  1.9821 -0.6069  0.6696
 2599SOL     OW 9246   2.428   1.245   1.021 -0.0758 -0.7127 -0.4412
 2599SOL    HW1 9247   2.472   1.329   1.004 -1.3485  0.2022  0.5430
 2599SOL    HW2 9248   2.491   1.179   0.994  1.6670  0.5374  0.3413
 2600SOL     OW 9249   2.728   3.102   0.944  0.0620 -0.4222  0.2776
 2600SOL    HW1 9250   2.772   3.045   0.881  0.7825 -0.4756  0.8201
 2600SOL    HW2 9251   2.741   3.190   0.909  0.1078 -0.4834  0.1384
 2601SOL     OW 9252   4.398   4.958   1.533  0.4247 -0.1836  0.1277
 2601SOL    HW1 9253   4.482   4.912   1.543 -0.1675 -1.3155  0.0202
 2601SOL    HW2 9254   4.364   4.965   1.622  0.5907  0.2131  0.1630
 2602SOL     OW 9255   0.783   5.435   5.174  0.3035  0.0123  0.6230
 2602SOL    HW1 9256   0.764   5.348   5.138  0.7090 -1.0246  2.7902
 2602SOL    HW2 9257   0.765   5.494   5.101 -2.4521 -1.6296 -0.1830
 2603SOL     OW 9258   1.668   0.264   2.982  0.3890 -0.0133 -0.6091
 2603SOL    HW1 9259   1.580   0.266   3.021  0.9501  0.4556  0.6893
 2603SOL    HW2 9260   1.698   0.174   2.998  0.3085 -0.0506 -0.6666
 2604SOL     OW 9261   2.734   0.861   4.329  0.9065  0.5808  0.2860
 2604SOL    HW1 9262   2.769   0.781   4.369  0.2641 -0.9604 -2.0382
 2604SOL    HW2 9263   2.666   0.890   4.390  2.2320  0.3443  1.9777
 2605SOL     OW 9264   3.241   3.363   1.326 -0.3364  0.0574 -0.7994
 2605SOL    HW1 9265   3.241   3.286   1.270  2.3023 -0.2543 -0.5143
 2605SOL    HW2 9266   3.273   3.434   1.270  1.9148 -0.1689  0.0651
 2606SOL     OW 9267   3.458   1.996   6.133 -0.0439  0.0313 -0.2280
 2606SOL    HW1 9268   3.429   2.069   6.078  1.6746  0.0369 -1.1929
 2606SOL    HW2 9269   3.534   2.030   6.180  1.3576 -1.3342 -1.3641
 2607SOL     OW 9270   3.907   2.276   7.100  0.1990  0.0242  0.2547
 2607SOL    HW1 9271   3.939   2.364   7.084 -2.0758  0.7478 -0.7362
 2607SOL    HW2 9272   3.955   2.221   7.038  0.0961  0.9187 -0.6291
 2608SOL     OW 9273   7.036   2.376   0.062 -0.1268  0.1836 -0.3193
 2608SOL    HW1 9274   6.951   2.391   0.104 -0.4405  0.1226 -0.9304
 2608SOL    HW2 9275   7.069   2.464   0.044  0.7076  0.2610  1.4256
 2609SOL     OW 9276   3.838   4.965   2.880  0.7893 -0.1559 -0.1763
 2609SOL    HW1 9277   3.890   4.966   2.960 -0.0463  1.2269  0.3868
 2609SOL    HW2 9278   3.902   4.951   2.810  1.6565 -0.4494  0.6550
 2610SOL     OW 9279   1.581   6.003   6.000 -0.1635  0.1399  0.3770
 2610SOL    HW1 9280   1.633   5.923   5.988  1.7895  1.5321 -1.3109
 2610SOL    HW2 9281   1.640   6.062   6.046 -1.7143  0.5501  1.9418
 2611SOL     OW 9282   0.464   5.065   3.643  0.0279  0.3197 -0.0402
 2611SOL    HW1 9283   0.437   5.129   3.709  1.4824  0.7464  0.1752
 2611SOL    HW2 9284   0.441   5.106   3.560  0.8765  1.1020  0.0998
 2612SOL     OW 9285   6.826   5.984   4.889  0.2047 -0.1763  0.4400
 2612SOL    HW1 9286   6.811   5.962   4.981  1.8374  1.0406  1.0456
 2612SOL    HW2 9287   6.839   5.900   4.846 -0.3182 -0.7532  1.3690
 2613SOL     OW 9288   6.354   0.256   0.265 -0.6225 -0.1805  0.4056
 2613SOL    HW1 9289   6.308   0.203   0.330 -0.0013 -0.1213  0.9157
 2613SOL    HW2 9290   6.302   0.336   0.257 -0.9124 -0.3552  0.5472
 2614SOL     OW 9291   1.502   5.601   5.743  0.2914 -0.2637  0.2227
 2614SOL    HW1 9292   1.574   5.551   5.782 -1.1758 -0.7218  2.5269
 2614SOL    HW2 9293   1.428   5.541   5.744 -0.4190  0.5339 -1.1834
 2615SOL     OW 9294   0.641   0.674   5.577 -0.0338 -0.0374  0.5276
 2615SOL    HW1 9295   0.640   0.765   5.607  0.4332 -0.0492  0.5814
 2615SOL    HW2 9296   0.551   0.643   5.590 -0.4030  0.6591 -0.2522
 2616SOL     OW 9297   1.064   1.344   6.041  0.0756  0.2997 -0.1719
 2616SOL    HW1 9298   1.028   1.307   6.122 -0.9161  0.5754 -0.4727
 2616SOL    HW2 9299   1.008   1.309   5.972  0.8469  0.1521 -0.7443
 2617SOL     OW 9300   4.985   3.152   2.181 -0.2086  0.3513 -0.6852
 2617SOL    HW1 9301   5.029   3.120   2.101 -0.9572 -0.4096 -0.8078
 2617SOL    HW2 9302   4.907   3.097   2.188  0.9299 -1.1262  1.7605
 2618SOL     OW 9303   0.470   5.780   1.365 -0.6510 -0.1306 -0.0177
 2618SOL    HW1 9304   0.391   5.832   1.374  0.0709  0.7166  2.4196
 2618SOL    HW2 9305   0.531   5.836   1.318 -0.1622  1.0054  1.8456
 2619SOL     OW 9306   3.166   3.222   4.999 -0.0232 -0.1896  1.0931
 2619SOL    HW1 9307   3.098   3.283   5.027 -1.3264  0.5647 -3.0241
 2619SOL    HW2 9308   3.164   3.151   5.064 -1.8607  1.7546  3.3236
 2620SOL     OW 9309   1.204   1.779   6.023  0.2927  0.3578  0.0427
 2620SOL    HW1 9310   1.115   1.758   6.052  0.5855 -0.4098  0.4164
 2620SOL    HW2 9311   1.220   1.867   6.057 -0.1792  0.3519  0.2923
 2621SOL     OW 9312   1.816   3.802   2.675 -0.4457  0.2893  0.0049
 2621SOL    HW1 9313   1.792   3.893   2.695 -0.4871 -0.1613  2.3709
 2621SOL    HW2 9314   1.909   3.797   2.695 -0.5911 -0.3288  0.5787
 2622SOL     OW 9315   5.350   4.926   5.129 -0.1411 -0.1896 -0.5687
 2622SOL    HW1 9316   5.355   4.997   5.192 -1.2434 -0.5344 -0.0605
 2622SOL    HW2 9317   5.298   4.961   5.056 -1.9719 -0.8813  0.3315
 2623SOL     OW 9318   2.923   5.280   0.019 -0.3094 -0.2440  0.0986
 2623SOL    HW1 9319   2.921   5.365   0.065  2.4476  0.9810 -1.7901
 2623SOL    HW2 9320   2.973   5.223   0.077 -0.9484 -0.1831  0.7311
 2624SOL     OW 9321   3.584   6.887   2.855 -0.2224  0.3090  0.1279
 2624SOL    HW1 9322   3.651   6.832   2.895  0.3643  0.2105 -0.9602
 2624SOL    HW2 9323   3.564   6.845   2.771 -3.0102 -0.7135  1.1773
 2625SOL     OW 9324   5.972   6.222   1.100  0.4447 -0.2019 -0.0659
 2625SOL    HW1 9325   6.030   6.196   1.172  1.0933  0.8431 -0.1891
 2625SOL    HW2 9326   5.891   6.173   1.115 -0.4069  1.8037  2.8199
 2626SOL     OW 9327   3.289   5.303   2.785  0.3337 -0.3459  0.1875
 2626SOL    HW1 9328   3.322   5.302   2.875  0.0892  0.0316  0.2809
 2626SOL    HW2 9329   3.263   5.393   2.769  1.3517 -0.1690 -0.6227
 2627SOL     OW 9330   4.946   0.476   4.824 -0.2564  0.0338  0.0595
 2627SOL    HW1 9331   4.889   0.467   4.901 -3.0075  0.8122 -1.7369
 2627SOL    HW2 9332   4.939   0.392   4.780  0.0368  0.1192 -0.1501
 2628SOL     OW 9333   4.602   3.454   0.797 -0.1776  0.3453  0.0891
 2628SOL    HW1 9334   4.695   3.472   0.807  0.0417 -0.4593 -0.3335
 2628SOL    HW2 9335   4.562   3.484   0.878  0.3834  1.1081  0.0896
 2629SOL     OW 9336   5.496   0.018   6.751  0.0545 -0.3082  0.3756
 2629SOL    HW1 9337   5.525   0.090   6.694  1.5372 -1.6350 -0.6147
 2629SOL    HW2 9338   5.539   0.035   6.835  0.7274 -0.2289  0.0261
 2630SOL     OW 9339   6.114   1.459   5.460 -0.1912  0.0091 -0.1464
 2630SOL    HW1 9340   6.173   1.502   5.523  0.7908  0.2049 -1.1626
 2630SOL    HW2 9341   6.030   1.503   5.472  0.0858  0.3172  0.7419
 2631SOL     OW 9342   6.265   3.009   6.877  0.3267 -0.0627  0.2120
 2631SOL    HW1 9343   6.296   2.919   6.863 -0.7274 -0.5553  0.8363
 2631SOL    HW2 9344   6.291   3.029   6.967  3.3114  1.4669 -0.8940
 2632SOL     OW 9345   5.228   5.062   3.056 -0.2723  0.1856  0.2930
 2632SOL    HW1 9346   5.249   4.988   2.998  1.6001  1.4603 -0.7347
 2632SOL    HW2 9347   5.161   5.111   3.009  1.2599  1.2310 -0.8991
 2633SOL     OW 9348   1.509   5.328   2.531 -0.0728 -0.1241 -0.5794
 2633SOL    HW1 9349   1.533   5.238   2.551 -0.3535  0.0753  0.7708
 2633SOL    HW2 9350   1.421   5.321   2.494  1.0344 -0.6369 -3.3094
 2634SOL     OW 9351   2.915   1.196   1.914 -0.3080  0.0776  0.0217
 2634SOL    HW1 9352   2.958   1.209   1.829  0.4440 -1.9424  0.0371
 2634SOL    HW2 9353   2.830   1.238   1.904  0.2534  0.9801 -1.2871
 2635SOL     OW 9354   6.983   4.754   1.829 -0.7444 -0.0314 -0.0290
 2635SOL    HW1 9355   7.077   4.747   1.845 -0.2331  0.7933 -2.2770
 2635SOL    HW2 9356   6.951   4.664   1.837 -0.2107 -0.0436  2.8657
 2636SOL     OW 9357   5.153   7.084   4.145 -0.4638 -0.4763 -0.6451
 2636SOL    HW1 9358   5.076   7.108   4.195 -0.0584  1.6407 -0.9385
 2636SOL    HW2 9359   5.141   7.125   4.060  0.8439 -0.3249 -0.7876
 2637SOL     OW 9360   1.632   1.432   4.766 -0.0139 -0.0869 -0.7118
 2637SOL    HW1 9361   1.659   1.511   4.719  1.0900 -0.6954 -1.1373
 2637SOL    HW2 9362   1.630   1.458   4.858  0.1589  0.4795 -0.8661
 2638SOL     OW 9363   6.361   6.764   5.240 -0.2050 -0.1970 -0.4953
 2638SOL    HW1 9364   6.406   6.731   5.162  0.2402 -1.0786  0.1265
 2638SOL    HW2 9365   6.272   6.728   5.233  0.2488 -1.4847  0.1304
 2639SOL     OW 9366   1.793   4.209   1.628  0.7390 -0.1957 -0.4385
 2639SOL    HW1 9367   1.805   4.140   1.694  2.8384  0.0228 -0.5373
 2639SOL    HW2 9368   1.827   4.170   1.547 -0.7432 -0.0414 -1.1704
 2640SOL     OW 9369   2.658   6.281   1.973  0.3164  0.0001 -0.0776
 2640SOL    HW1 9370   2.596   6.294   1.901  0.5127 -2.7100 -0.8642
 2640SOL    HW2 9371   2.707   6.363   1.979 -1.5864  1.2870 -1.1369
 2641SOL     OW 9372   0.298   1.338   2.774  0.5975  0.0615  0.0896
 2641SOL    HW1 9373   0.232   1.377   2.832 -0.1508 -1.0045 -0.0115
 2641SOL    HW2 9374   0.363   1.300   2.833  0.1478 -0.5021  0.2283
 2642SOL     OW 9375   4.142   0.068   6.400  0.4136  0.6306  0.3728
 2642SOL    HW1 9376   4.072   0.040   6.342 -0.7105  1.8967  1.0558
 2642SOL    HW2 9377   4.199   0.121   6.346 -0.3559  1.3927  0.2927
 2643SOL     OW 9378   7.102   6.854   3.260  0.4002 -0.2396 -0.2109
 2643SOL    HW1 9379   7.124   6.793   3.189  1.2950  1.1269 -1.1358
 2643SOL    HW2 9380   7.179   6.855   3.316  0.5202  0.2859 -0.3813
 2644SOL     OW 9381   3.653   4.378   3.237  0.3107 -0.2402  0.2261
 2644SOL    HW1 9382   3.723   4.352   3.297  1.5836  1.4630 -0.4429
 2644SOL    HW2 9383   3.574   4.337   3.274  0.7292  1.8234  3.9069
 2645SOL     OW 9384   5.600   5.622   5.796 -0.9593 -0.2323  0.4756
 2645SOL    HW1 9385   5.616   5.714   5.775  2.2691 -0.7522  0.1389
 2645SOL    HW2 9386   5.610   5.618   5.891  3.6435 -0.7917  0.1928
 2646SOL     OW 9387   3.078   6.776   6.913  0.1594 -0.5177  0.5366
 2646SOL    HW1 9388   3.168   6.760   6.941  0.3133  0.7354  0.7994
 2646SOL    HW2 9389   3.076   6.745   6.822  2.0124  2.9750 -0.8855
 2647SOL     OW 9390   3.345   2.071   0.065 -0.3427 -0.3354 -0.0385
 2647SOL    HW1 9391   3.347   1.986   0.110  0.0367 -1.1153 -1.4700
 2647SOL    HW2 9392   3.418   2.067   0.003 -0.0740  1.2126  0.1516
 2648SOL     OW 9393   1.625   1.461   2.379  0.2410  0.8266  0.3168
 2648SOL    HW1 9394   1.636   1.535   2.319 -0.5469 -0.9666 -2.2496
 2648SOL    HW2 9395   1.602   1.388   2.321  0.0737 -1.2126  2.8123
 2649SOL     OW 9396   2.905   0.366   2.178 -0.7656  0.4956 -0.5593
 2649SOL    HW1 9397   2.956   0.423   2.120 -1.0832  1.7987  0.3836
 2649SOL    HW2 9398   2.877   0.294   2.122  2.0759 -0.3096 -1.1281
 2650SOL     OW 9399   5.900   0.684   6.288  0.5787 -0.8285  0.2019
 2650SOL    HW1 9400   5.896   0.774   6.257  3.2229 -0.7526 -0.1525
 2650SOL    HW2 9401   5.943   0.689   6.373  5.2891 -1.9222 -1.7749
 2651SOL     OW 9402   5.144   2.003   6.432 -0.1057  0.1918  0.4061
 2651SOL    HW1 9403   5.116   2.088   6.400  0.9423  0.7663  0.9836
 2651SOL    HW2 9404   5.098   1.992   6.515  0.2839  0.4967  0.6620
 2652SOL     OW 9405   2.311   1.965   0.536  0.2015 -0.1938  0.1402
 2652SOL    HW1 9406   2.353   2.048   0.517  0.0396 -0.0032  0.5988
 2652SOL    HW2 9407   2.277   1.975   0.625 -1.2780 -0.1454 -0.4080
 2653SOL     OW 9408   0.844   1.915   4.974 -0.0524 -0.6854 -0.7214
 2653SOL    HW1 9409   0.766   1.860   4.985 -0.4853 -0.0369 -0.4904
 2653SOL    HW2 9410   0.917   1.856   4.991 -0.5063 -1.2179 -0.5761
 2654SOL     OW 9411   4.277   3.606   2.149  0.0918  0.2318  0.3266
 2654SOL    HW1 9412   4.319   3.635   2.230  0.0063 -0.6241  0.6886
 2654SOL    HW2 9413   4.328   3.529   2.122 -1.4053 -1.0452  0.9652
 2655SOL     OW 9414   4.137   6.461   1.690  0.0481 -0.1714  0.0113
 2655SOL    HW1 9415   4.129   6.456   1.785 -0.1274 -2.0696 -0.0580
 2655SOL    HW2 9416   4.228   6.436   1.671  0.1976  0.5881 -0.3040
 2656SOL     OW 9417   6.456   0.545   7.013 -0.2673  0.1787 -0.2382
 2656SOL    HW1 9418   6.470   0.607   6.942 -0.3048  0.5876  0.1073
 2656SOL    HW2 9419   6.392   0.483   6.979  0.3320 -0.1165 -0.8594
 2657SOL     OW 9420   1.046   6.623   4.058 -0.1825 -0.2136 -0.1769
 2657SOL    HW1 9421   1.030   6.671   3.977  0.1122 -0.2282 -0.2460
 2657SOL    HW2 9422   1.066   6.534   4.030  0.5980 -0.0629 -0.1424
 2658SOL     OW 9423   0.058   5.731   5.603 -0.2917 -0.1084 -0.4283
 2658SOL    HW1 9424   0.134   5.739   5.546  0.6010 -1.0276  0.5943
 2658SOL    HW2 9425   0.025   5.821   5.612  0.4722  0.2575 -1.1314
 2659SOL     OW 9426   1.168   4.780   6.316 -0.0647  0.3271 -0.2778
 2659SOL    HW1 9427   1.258   4.804   6.340 -0.1371  1.4847 -1.0984
 2659SOL    HW2 9428   1.171   4.685   6.303  1.3907  0.5232 -1.6879
 2660SOL     OW 9429   2.079   4.849   6.134  0.1065  0.6876 -0.3675
 2660SOL    HW1 9430   2.062   4.757   6.117  2.7061 -0.5823  3.0049
 2660SOL    HW2 9431   2.098   4.854   6.227 -2.5923  5.1603  0.2450
 2661SOL     OW 9432   3.721   4.671   4.928  0.5898  0.4169 -0.0238
 2661SOL    HW1 9433   3.667   4.621   4.990  0.9901  0.5612  0.4468
 2661SOL    HW2 9434   3.789   4.711   4.982 -0.2177  2.1736 -0.2540
 2662SOL     OW 9435   5.006   4.142   4.650 -0.0572 -0.0255  0.5281
 2662SOL    HW1 9436   5.070   4.088   4.695  0.6435  0.9354  0.7039
 2662SOL    HW2 9437   5.044   4.229   4.648  0.0420 -0.0360 -2.0962
 2663SOL     OW 9438   3.144   0.407   0.111 -0.1437 -0.1017  0.0012
 2663SOL    HW1 9439   3.199   0.338   0.074 -1.3742 -1.0738 -0.0728
 2663SOL    HW2 9440   3.146   0.391   0.205 -1.9217 -1.4498 -0.1379
 2664SOL     OW 9441   0.940   3.521   0.176 -0.6908 -0.0358  0.0693
 2664SOL    HW1 9442   0.904   3.529   0.088 -0.8397  0.3744  0.1657
 2664SOL    HW2 9443   1.010   3.456   0.168 -1.9983 -1.4865  0.0408
 2665SOL     OW 9444   3.445   4.233   6.572 -0.6763  0.0299  0.7435
 2665SOL    HW1 9445   3.477   4.240   6.482  1.4153  1.2618  1.5305
 2665SOL    HW2 9446   3.417   4.322   6.595  1.1247  0.2889  2.0939
 2666SOL     OW 9447   5.361   2.732   3.050 -0.1175 -0.1346 -0.0631
 2666SOL    HW1 9448   5.354   2.824   3.077 -0.9304  0.0057 -0.6969
 2666SOL    HW2 9449   5.442   2.701   3.090 -0.3176  0.5893  0.9415
 2667SOL     OW 9450   3.474   0.433   3.681 -0.1644 -0.1984  0.7705
 2667SOL    HW1 9451   3.527   0.366   3.636 -0.5723  0.6443 -1.0825
 2667SOL    HW2 9452   3.521   0.515   3.666 -0.0307  0.0629  2.4353
 2668SOL     OW 9453   5.899   3.461   6.055 -0.3866  0.8727  0.2976
 2668SOL    HW1 9454   5.869   3.494   5.971 -1.8391  0.6146  0.6814
 2668SOL    HW2 9455   5.824   3.474   6.114  1.3568  3.2023  2.1796
 2669SOL     OW 9456   0.231   4.715   0.384 -0.2290 -0.2933 -0.0953
 2669SOL    HW1 9457   0.238   4.747   0.473 -0.0329  1.2384 -0.6356
 2669SOL    HW2 9458   0.319   4.725   0.347 -0.8651  1.5737 -1.2354
 2670SOL     OW 9459   6.950   2.568   2.517  0.2457 -0.1751 -0.5113
 2670SOL    HW1 9460   6.978   2.526   2.599  2.2450  0.5150 -0.7845
 2670SOL    HW2 9461   6.925   2.496   2.460 -0.5160 -0.7043  0.4480
 2671SOL     OW 9462   4.834   6.528   2.584 -0.2579  0.2440 -1.3391
 2671SOL    HW1 9463   4.805   6.437   2.576  0.6161 -0.5872  2.7541
 2671SOL    HW2 9464   4.759   6.574   2.622  0.3144  0.4524 -0.4221
 2672SOL     OW 9465   6.574   2.193   2.849 -0.1790  0.5555  0.0763
 2672SOL    HW1 9466   6.572   2.227   2.939  0.7235  0.4041  0.1570
 2672SOL    HW2 9467   6.574   2.098   2.859  0.7191  0.5339 -0.0539
 2673SOL     OW 9468   6.270   1.782   1.897  0.2697 -0.3516 -0.5063
 2673SOL    HW1 9469   6.334   1.757   1.830  1.8847 -1.5321  1.3580
 2673SOL    HW2 9470   6.293   1.873   1.918  0.0075 -0.1049 -1.2465
 2674SOL     OW 9471   1.266   0.206   3.468  0.3712  0.3382  0.4887
 2674SOL    HW1 9472   1.221   0.265   3.407 -0.8992  1.6229  2.5105
 2674SOL    HW2 9473   1.348   0.251   3.488 -0.4116  1.2826  1.7112
 2675SOL     OW 9474   4.824   2.379   0.622  0.0545  0.9463  0.7085
 2675SOL    HW1 9475   4.872   2.307   0.581 -0.1415  0.2189  1.7238
 2675SOL    HW2 9476   4.809   2.441   0.551  0.1169 -0.0731 -0.2232
 2676SOL     OW 9477   6.793   3.328   6.809 -0.3123  0.2617  0.2912
 2676SOL    HW1 9478   6.758   3.410   6.773  0.5146  0.3279 -0.3898
 2676SOL    HW2 9479   6.716   3.274   6.826 -0.8512  1.0827  0.5082
 2677SOL     OW 9480   6.216   5.219   0.475  0.0879  0.0794  0.0519
 2677SOL    HW1 9481   6.264   5.141   0.448 -0.5496 -0.1868 -0.3230
 2677SOL    HW2 9482   6.202   5.268   0.394  1.0631  0.9241  0.3692
 2678SOL     OW 9483   2.256   3.809   3.443 -0.1854 -0.2815 -0.2716
 2678SOL    HW1 9484   2.339   3.762   3.457 -0.6881 -1.0356  0.2890
 2678SOL    HW2 9485   2.260   3.838   3.352  0.2043 -1.3180 -0.6073
 2679SOL     OW 9486   0.076   3.946   1.012 -0.3946  0.4660  0.0732
 2679SOL    HW1 9487   0.068   4.021   1.071  0.1847  0.1305  0.5892
 2679SOL    HW2 9488   0.137   3.975   0.944  0.3549  0.2465  0.6390
 2680SOL     OW 9489   2.144   1.657   2.617  0.2581  0.4364 -0.3018
 2680SOL    HW1 9490   2.069   1.603   2.639  0.0700  0.4318 -0.9356
 2680SOL    HW2 9491   2.188   1.610   2.547  0.9793  0.3308  0.2060
 2681SOL     OW 9492   5.399   1.103   5.960 -0.3705  0.2670 -0.5683
 2681SOL    HW1 9493   5.400   1.046   6.036 -0.8813 -0.0351 -0.7851
 2681SOL    HW2 9494   5.481   1.082   5.914  0.3569  1.0481  0.3157
 2682SOL     OW 9495   6.779   6.874   5.757  0.0522 -0.0506  0.6736
 2682SOL    HW1 9496   6.822   6.790   5.769  2.4490  1.0445  0.3173
 2682SOL    HW2 9497   6.740   6.869   5.670  0.9726 -0.4955  0.2766
 2683SOL     OW 9498   0.015   0.482   4.019 -0.1341 -0.6180 -0.0738
 2683SOL    HW1 9499  -0.062   0.464   4.073 -0.1390 -1.1935 -0.2594
 2683SOL    HW2 9500  -0.006   0.443   3.934 -0.6296  1.3102 -0.8880
 2684SOL     OW 9501   6.067   1.667   5.972 -0.0967  0.0280 -0.2945
 2684SOL    HW1 9502   5.984   1.620   5.985  0.4778 -1.1506 -0.7514
 2684SOL    HW2 9503   6.041   1.758   5.958 -1.2913 -0.2598 -0.0368
 2685SOL     OW 9504   4.023   1.778   6.076  0.2873 -0.2093  0.0210
 2685SOL    HW1 9505   4.114   1.750   6.086  0.4743  0.2371 -0.4085
 2685SOL    HW2 9506   4.019   1.819   5.990 -0.8535 -2.2352 -0.9728
 2686SOL     OW 9507   3.605   6.769   5.612  0.0272 -0.0363 -0.1465
 2686SOL    HW1 9508   3.567   6.682   5.617 -1.4071  0.4703 -1.4504
 2686SOL    HW2 9509   3.556   6.821   5.676  2.7054 -0.7114  2.7098
 2687SOL     OW 9510   1.378   4.164   1.378 -0.2395  0.0527  0.6602
 2687SOL    HW1 9511   1.442   4.199   1.317 -1.2356 -0.3786 -0.6903
 2687SOL    HW2 9512   1.411   4.077   1.402 -0.7134 -0.5353 -0.7192
 2688SOL     OW 9513   4.013   5.394   5.631  0.1991 -0.0271  0.4406
 2688SOL    HW1 9514   3.942   5.422   5.573  0.9995 -0.5151 -0.8223
 2688SOL    HW2 9515   4.057   5.475   5.657 -0.9763  0.3080  1.4916
 2689SOL     OW 9516   4.007   0.715   3.384 -0.0418  0.0602  0.3488
 2689SOL    HW1 9517   3.976   0.789   3.332  1.0191 -0.6081 -1.3049
 2689SOL    HW2 9518   3.954   0.641   3.354  0.6803 -0.3604  0.1009
 2690SOL     OW 9519   5.729   2.055   5.281 -0.0520 -0.0335 -0.6441
 2690SOL    HW1 9520   5.693   2.026   5.197  3.3667 -1.4110 -1.7882
 2690SOL    HW2 9521   5.763   2.143   5.265  2.0320 -0.8922 -1.2834
 2691SOL     OW 9522   6.819   3.931   6.776  0.3609  0.2460  0.3552
 2691SOL    HW1 9523   6.734   3.930   6.820 -0.1554 -0.5569 -0.6072
 2691SOL    HW2 9524   6.802   3.977   6.693  0.6501 -0.6419 -0.2124
 2692SOL     OW 9525   2.006   0.521   3.580  0.3286  0.0522 -0.8267
 2692SOL    HW1 9526   2.065   0.535   3.654 -0.8905  0.0872  0.1675
 2692SOL    HW2 9527   2.036   0.440   3.539  1.6413  0.5708 -0.9344
 2693SOL     OW 9528   5.949   6.518   6.863  0.0014  0.1075 -0.0599
 2693SOL    HW1 9529   6.043   6.502   6.859  0.2148  0.8547  1.5076
 2693SOL    HW2 9530   5.912   6.437   6.898  0.0567 -0.1613 -0.6116
 2694SOL     OW 9531   1.446   3.044   4.283  1.1114 -0.2950  0.4773
 2694SOL    HW1 9532   1.404   2.985   4.345 -1.5635  2.6197  1.7179
 2694SOL    HW2 9533   1.538   3.017   4.282  0.3129 -3.5886  1.8284
 2695SOL     OW 9534   2.285   2.771   7.067  0.2063 -0.2761 -0.0942
 2695SOL    HW1 9535   2.292   2.726   7.151  1.6743 -0.2726 -0.1928
 2695SOL    HW2 9536   2.218   2.838   7.081  1.1965  0.4574  1.4142
 2696SOL     OW 9537   4.290   3.887   6.206 -0.3584 -0.0999 -0.3047
 2696SOL    HW1 9538   4.356   3.957   6.205 -0.5834  0.1432  0.8232
 2696SOL    HW2 9539   4.342   3.806   6.209 -0.1093  0.0405 -0.6549
 2697SOL     OW 9540   2.967   6.967   6.409  0.1578 -0.1138 -0.2004
 2697SOL    HW1 9541   2.916   6.907   6.464  1.7559 -0.0607  1.4161
 2697SOL    HW2 9542   3.058   6.941   6.422  0.6511  0.4545 -2.2106
 2698SOL     OW 9543   6.802   3.985   7.131  0.1794 -0.2506  0.3790
 2698SOL    HW1 9544   6.838   4.030   7.055  0.3871  0.5882  0.9703
 2698SOL    HW2 9545   6.763   4.054   7.185 -0.7470 -0.9340  0.6195
 2699SOL     OW 9546   7.049   2.048   0.235 -0.0212 -1.1179  0.3207
 2699SOL    HW1 9547   6.979   2.037   0.299 -1.1447  0.5855 -0.5542
 2699SOL    HW2 9548   7.040   1.973   0.176  0.0133 -1.8354  1.2056
 2700SOL     OW 9549   6.584   1.990   1.172 -0.1861  0.8684  0.1267
 2700SOL    HW1 9550   6.652   1.927   1.149 -0.1976  1.5789 -2.1074
 2700SOL    HW2 9551   6.553   1.962   1.257 -0.6729 -2.5521 -1.0380
 2701SOL     OW 9552   2.002   7.072   4.900 -0.3102 -0.2640 -0.0770
 2701SOL    HW1 9553   2.000   7.159   4.939 -2.5208  0.2489 -1.1539
 2701SOL    HW2 9554   1.933   7.074   4.833  0.8446 -2.2561 -1.4244
 2702SOL     OW 9555   3.949   2.506   1.568 -1.0461  0.2546 -0.6377
 2702SOL    HW1 9556   3.980   2.597   1.572  1.5374 -0.4729 -1.7553
 2702SOL    HW2 9557   3.907   2.499   1.483 -0.3298  0.1799 -0.9963
 2703SOL     OW 9558   1.359   3.654   4.216  0.2668  0.2814  0.0808
 2703SOL    HW1 9559   1.447   3.687   4.199  1.1046 -1.1879  1.3467
 2703SOL    HW2 9560   1.369   3.560   4.223 -1.4816  0.0509 -0.0387
 2704SOL     OW 9561   4.290   4.638   4.041 -0.1014  0.0472 -0.3466
 2704SOL    HW1 9562   4.255   4.600   3.960  2.5648 -0.2476 -1.4651
 2704SOL    HW2 9563   4.236   4.715   4.057 -1.7348 -0.8104 -1.4595
 2705SOL     OW 9564   3.722   3.745   1.776  0.4115  0.8282 -0.1211
 2705SOL    HW1 9565   3.743   3.661   1.817 -1.7093 -1.2929 -3.0135
 2705SOL    HW2 9566   3.674   3.792   1.844 -0.0685 -1.0948  0.9714
 2706SOL     OW 9567   4.996   2.122   2.454 -0.4037  0.5309  0.3029
 2706SOL    HW1 9568   4.913   2.090   2.489  0.6667 -0.6155  1.9210
 2706SOL    HW2 9569   4.973   2.158   2.368 -2.5211  0.0350  0.6009
 2707SOL     OW 9570   0.792   3.772   4.326 -0.4408  0.1338 -0.3096
 2707SOL    HW1 9571   0.805   3.677   4.328 -0.3541  0.0448 -2.5657
 2707SOL    HW2 9572   0.872   3.808   4.366  0.8646 -0.7072 -2.0619
 2708SOL     OW 9573   3.357   2.736   5.176 -0.3284 -0.3975 -0.3767
 2708SOL    HW1 9574   3.433   2.677   5.172 -0.2054 -0.1556 -1.8406
 2708SOL    HW2 9575   3.306   2.702   5.250  0.7838 -1.0558  0.1319
 2709SOL     OW 9576   4.691   4.109   6.201  0.0555 -0.0514 -0.4375
 2709SOL    HW1 9577   4.709   4.200   6.177 -0.9774  0.3706  0.3023
 2709SOL    HW2 9578   4.632   4.116   6.276  1.7106 -1.3067  1.0693
 2710SOL     OW 9579   0.849   2.129   4.435  0.2307  0.3391  0.0572
 2710SOL    HW1 9580   0.920   2.065   4.439  0.6965  0.8928  1.2728
 2710SOL    HW2 9581   0.772   2.082   4.469  0.0537 -0.1898 -1.0404
 2711SOL     OW 9582   2.578   2.787   3.022  0.2042  0.0344  1.0200
 2711SOL    HW1 9583   2.496   2.810   3.065  0.2716 -1.0430  1.7837
 2711SOL    HW2 9584   2.552   2.762   2.933 -0.2346  0.1720  1.1067
 2712SOL     OW 9585   3.503   3.116   3.917  0.5440 -0.2602 -0.0111
 2712SOL    HW1 9586   3.455   3.048   3.870 -0.3457  0.5488 -0.2975
 2712SOL    HW2 9587   3.520   3.078   4.003  0.0962 -0.8615 -0.1851
 2713SOL     OW 9588   4.674   0.311   2.880  0.1324 -0.3267  0.2253
 2713SOL    HW1 9589   4.756   0.318   2.831  0.2528  1.1278  0.6038
 2713SOL    HW2 9590   4.622   0.386   2.851 -1.2859 -1.4672 -0.3550
 2714SOL     OW 9591   0.598   2.245   2.944  0.1434  0.4105  0.0307
 2714SOL    HW1 9592   0.570   2.235   3.035  0.9053 -3.6261  0.0015
 2714SOL    HW2 9593   0.516   2.254   2.895 -0.4710 -0.4127  0.8735
 2715SOL     OW 9594   0.472   0.210   6.977 -0.3586 -0.3164 -0.3397
 2715SOL    HW1 9595   0.437   0.121   6.973  0.6272 -0.6991 -0.9316
 2715SOL    HW2 9596   0.567   0.198   6.973 -0.2339  0.7920 -1.0553
 2716SOL     OW 9597   0.237   3.027   2.033 -0.2117 -0.0699 -0.1109
 2716SOL    HW1 9598   0.315   3.037   2.088 -1.2051 -0.2713  1.3743
 2716SOL    HW2 9599   0.170   3.080   2.075 -0.3715  1.8658 -2.5411
 2717SOL     OW 9600   4.941   2.381   5.089  0.2267  0.0693 -0.0206
 2717SOL    HW1 9601   4.880   2.424   5.149  2.2468  2.1553  0.6523
 2717SOL    HW2 9602   4.966   2.300   5.134 -0.5889  0.1055  0.5316
 2718SOL     OW 9603   5.183   0.675   4.895 -0.1730 -0.2271 -0.0219
 2718SOL    HW1 9604   5.125   0.600   4.883 -0.8031  0.3597 -0.7856
 2718SOL    HW2 9605   5.255   0.660   4.834 -0.3273 -0.1845 -0.2147
 2719SOL     OW 9606   0.510   3.513   6.062  0.1095 -0.5308  0.5746
 2719SOL    HW1 9607   0.556   3.554   6.135 -0.1080 -2.5583  1.9218
 2719SOL    HW2 9608   0.558   3.432   6.046 -0.8133 -0.8985 -0.4710
 2720SOL     OW 9609   7.075   0.373   0.971 -0.1924  0.2895 -0.5105
 2720SOL    HW1 9610   7.082   0.373   0.876  3.5941  2.6499 -0.4316
 2720SOL    HW2 9611   7.013   0.443   0.991 -0.2250  0.4716 -1.2265
 2721SOL     OW 9612   0.525   4.713   5.761  0.1378 -0.0588 -0.0805
 2721SOL    HW1 9613   0.529   4.625   5.798 -1.5189 -0.3368 -0.4689
 2721SOL    HW2 9614   0.584   4.710   5.686  0.6007 -0.6341  0.2936
 2722SOL     OW 9615   2.620   2.407   1.864  0.0654 -0.2910  0.1034
 2722SOL    HW1 9616   2.593   2.467   1.934  0.8013 -0.4557  0.5336
 2722SOL    HW2 9617   2.548   2.411   1.800  0.1710  1.1544  0.0527
 2723SOL     OW 9618   5.009   1.104   1.292 -0.3304 -0.9008 -0.0717
 2723SOL    HW1 9619   4.993   1.012   1.310  0.0629 -0.8131  0.7890
 2723SOL    HW2 9620   5.102   1.110   1.272 -0.2402 -0.6201  0.4077
 2724SOL     OW 9621   6.944   3.741   4.735 -0.2290  0.3672  0.3503
 2724SOL    HW1 9622   6.918   3.652   4.710 -0.3242  0.5292 -0.1452
 2724SOL    HW2 9623   7.040   3.737   4.738 -0.1490  0.5978 -1.0923
 2725SOL     OW 9624   2.231   2.464   5.866 -0.4533 -0.1792  0.2127
 2725SOL    HW1 9625   2.263   2.380   5.901 -0.3012  0.4018  1.5520
 2725SOL    HW2 9626   2.144   2.444   5.833 -0.3538 -0.9040  0.3572
 2726SOL     OW 9627   5.896   3.828   1.175 -0.0225 -0.0145  0.1596
 2726SOL    HW1 9628   5.819   3.831   1.233 -0.6309 -1.5230 -0.5190
 2726SOL    HW2 9629   5.916   3.920   1.157 -4.2412  0.6147 -2.9068
 2727SOL     OW 9630   2.958   2.289   6.609 -0.1949  0.2015 -0.0917
 2727SOL    HW1 9631   2.928   2.374   6.579 -1.7128 -0.3105 -0.0932
 2727SOL    HW2 9632   2.980   2.303   6.702  1.3370  0.9939 -0.5346
 2728SOL     OW 9633   2.916   4.769   1.117 -0.0246 -0.4838 -0.0707
 2728SOL    HW1 9634   2.873   4.745   1.035 -0.8733 -1.5561  0.6734
 2728SOL    HW2 9635   2.863   4.841   1.151 -0.7442 -1.2226  0.4073
 2729SOL     OW 9636   0.674   0.719   0.993 -0.2279 -0.0135  0.6636
 2729SOL    HW1 9637   0.612   0.653   0.965  0.2139  0.1375 -0.7590
 2729SOL    HW2 9638   0.715   0.749   0.912  1.1091  0.4673  1.4861
 2730SOL     OW 9639   6.379   5.837   5.237  0.4187 -0.0885 -0.7060
 2730SOL    HW1 9640   6.338   5.887   5.307  0.5694 -0.6471 -0.2194
 2730SOL    HW2 9641   6.308   5.819   5.175 -0.3012 -1.7973  0.5440
 2731SOL     OW 9642   3.421   1.082   1.159 -0.0404 -0.6061  0.0027
 2731SOL    HW1 9643   3.516   1.082   1.167 -0.0269 -0.6268 -0.1519
 2731SOL    HW2 9644   3.390   1.026   1.230  0.1493 -1.9593 -0.9402
 2732SOL     OW 9645   3.162   6.382   4.603  0.2587 -0.0728  0.2588
 2732SOL    HW1 9646   3.189   6.394   4.694  1.6169  0.4507 -0.1721
 2732SOL    HW2 9647   3.236   6.337   4.563  0.2647  0.8870 -0.8663
 2733SOL     OW 9648   5.524   4.820   0.294 -0.0514  0.3892 -0.6103
 2733SOL    HW1 9649   5.515   4.739   0.344  1.5018  0.3474 -0.3490
 2733SOL    HW2 9650   5.494   4.888   0.355  1.0081  0.2500  0.0965
 2734SOL     OW 9651   5.494   3.459   7.028 -0.0331  0.0948 -0.4605
 2734SOL    HW1 9652   5.441   3.459   6.948 -1.2289  0.0802  0.3051
 2734SOL    HW2 9653   5.503   3.552   7.050 -0.2495  0.0723 -0.2709
 2735SOL     OW 9654   0.501   6.293   3.048  0.0498  0.0707 -0.7451
 2735SOL    HW1 9655   0.498   6.206   3.007  0.3562  0.9594 -2.7566
 2735SOL    HW2 9656   0.464   6.352   2.983  1.9457  1.7852 -0.3916
 2736SOL     OW 9657   5.919   6.561   1.470  0.1233  0.1273 -0.0415
 2736SOL    HW1 9658   6.006   6.600   1.477 -0.1247  0.3887  1.9116
 2736SOL    HW2 9659   5.861   6.635   1.454  0.1182  0.0651 -0.3296
 2737SOL     OW 9660   1.471   4.690   0.415  0.8492 -0.1400  0.3695
 2737SOL    HW1 9661   1.419   4.629   0.363 -1.1884  0.0676  2.0630
 2737SOL    HW2 9662   1.540   4.636   0.454 -0.2446 -1.1629  0.9325
 2738SOL     OW 9663   6.609   6.034   4.476 -0.1435  0.3343 -0.6796
 2738SOL    HW1 9664   6.651   5.969   4.421 -1.1277  0.4294 -1.5895
 2738SOL    HW2 9665   6.632   6.009   4.566 -1.3856 -1.9473 -0.9105
 2739SOL     OW 9666   4.273   4.311   5.225  0.2396  0.1514  0.5248
 2739SOL    HW1 9667   4.283   4.379   5.291 -0.3572 -1.8436  2.7913
 2739SOL    HW2 9668   4.181   4.287   5.228  0.7260 -1.8796  1.0270
 2740SOL     OW 9669   4.360   6.856   2.676  0.0880 -0.1717  0.1054
 2740SOL    HW1 9670   4.336   6.910   2.600 -1.0984 -0.9650 -0.0996
 2740SOL    HW2 9671   4.333   6.768   2.652  0.2167 -0.5316  1.2365
 2741SOL     OW 9672   6.020   4.892   5.435  0.4234 -0.2838 -0.3996
 2741SOL    HW1 9673   6.026   4.983   5.466  0.5891 -0.1753 -0.7381
 2741SOL    HW2 9674   6.109   4.871   5.407  0.1534 -0.1646 -1.3786
 2742SOL     OW 9675   3.498   4.541   6.653  0.6805 -0.0695 -0.0511
 2742SOL    HW1 9676   3.472   4.552   6.561 -0.1729 -0.7314  0.0947
 2742SOL    HW2 9677   3.510   4.630   6.686  0.3524  0.1928 -0.6310
 2743SOL     OW 9678   0.673   0.397   2.291  0.2748 -0.2349 -0.0722
 2743SOL    HW1 9679   0.634   0.322   2.337 -0.3549  0.8995  1.3016
 2743SOL    HW2 9680   0.602   0.431   2.237  1.0126 -1.5629 -1.9880
 2744SOL     OW 9681   4.724   2.779   4.783 -0.3728 -0.0127 -0.4555
 2744SOL    HW1 9682   4.753   2.722   4.712 -0.3322  0.2750 -0.6686
 2744SOL    HW2 9683   4.654   2.832   4.745 -1.3748 -0.8865  0.1264
 2745SOL     OW 9684   1.240   5.209   7.122  0.1238  0.1916  0.2289
 2745SOL    HW1 9685   1.237   5.195   7.217  1.6722  0.4553  0.3519
 2745SOL    HW2 9686   1.177   5.147   7.086  0.3761 -0.7622  1.3675
 2746SOL     OW 9687   6.376   6.514   0.803  0.1210 -0.2490  0.2106
 2746SOL    HW1 9688   6.327   6.530   0.883 -0.4320 -1.0606  0.0491
 2746SOL    HW2 9689   6.464   6.547   0.821 -0.5774  1.6575  0.3529
 2747SOL     OW 9690   2.775   3.688   1.024 -0.3498  0.1922 -0.2985
 2747SOL    HW1 9691   2.724   3.671   1.104  0.3543 -0.3380  0.0476
 2747SOL    HW2 9692   2.854   3.636   1.035  0.0614  0.6491 -1.0414
 2748SOL     OW 9693   6.495   4.834   3.264 -0.4173 -1.2026 -0.0688
 2748SOL    HW1 9694   6.454   4.860   3.347 -0.4781 -0.0971 -0.4382
 2748SOL    HW2 9695   6.584   4.870   3.269 -1.0358  0.6022 -1.2942
 2749SOL     OW 9696   6.631   5.938   6.121  0.1338  0.6128  0.5029
 2749SOL    HW1 9697   6.585   5.872   6.069  1.8809  0.1043 -0.4918
 2749SOL    HW2 9698   6.595   5.928   6.209 -1.2254 -0.1270 -0.0956
 2750SOL     OW 9699   4.975   2.856   3.954 -0.4097  0.9411  0.0185
 2750SOL    HW1 9700   4.928   2.789   4.004 -2.4424  1.1817 -1.4184
 2750SOL    HW2 9701   5.052   2.811   3.920  0.2131  0.3834  2.0685
 2751SOL     OW 9702   0.954   4.808   6.452 -0.2214  1.0885 -1.1481
 2751SOL    HW1 9703   1.034   4.821   6.402  0.9578  1.4168  0.7549
 2751SOL    HW2 9704   0.967   4.857   6.533 -0.2749 -2.7324  1.4081
 2752SOL     OW 9705   0.231   2.481   2.017  0.0093 -0.1307  0.2436
 2752SOL    HW1 9706   0.250   2.394   2.054 -0.5721  0.0244  0.9296
 2752SOL    HW2 9707   0.189   2.529   2.088 -0.0855  0.5691 -0.2709
 2753SOL     OW 9708   5.470   0.225   6.236  0.0317  0.3480 -0.3338
 2753SOL    HW1 9709   5.511   0.154   6.186 -0.1959 -0.3725  0.4732
 2753SOL    HW2 9710   5.424   0.277   6.170 -2.2087 -1.8975 -0.6817
 2754SOL     OW 9711   6.021   5.023   3.334 -0.1690  0.4731  0.2470
 2754SOL    HW1 9712   6.033   4.972   3.414 -1.1416  1.2873  0.9311
 2754SOL    HW2 9713   5.966   5.097   3.360 -0.9810  0.4543 -1.2847
 2755SOL     OW 9714   4.264   2.238   6.589  0.0947  0.2455 -0.0744
 2755SOL    HW1 9715   4.358   2.257   6.599 -0.2983  1.1494  2.9185
 2755SOL    HW2 9716   4.220   2.309   6.636 -2.1473  0.0248 -1.6882
 2756SOL     OW 9717   4.269   2.720   0.527 -0.1399  0.0026  0.1068
 2756SOL    HW1 9718   4.287   2.814   0.540  0.0514 -0.1091  0.6941
 2756SOL    HW2 9719   4.353   2.677   0.544 -0.2541 -0.2861 -0.0550
 2757SOL     OW 9720   6.983   5.464   4.174 -0.2453  0.2253 -0.2409
 2757SOL    HW1 9721   6.973   5.497   4.263 -0.2422 -0.0732 -0.1281
 2757SOL    HW2 9722   6.939   5.378   4.176  1.2186 -0.5448 -0.0798
 2758SOL     OW 9723   4.832   1.449   2.602 -0.2680 -0.4437  0.0060
 2758SOL    HW1 9724   4.920   1.455   2.640 -0.2436  0.5583 -0.1640
 2758SOL    HW2 9725   4.774   1.486   2.669 -0.6192 -1.4510  0.2727
 2759SOL     OW 9726   0.792   4.162   4.357  0.1403 -0.1333 -0.1341
 2759SOL    HW1 9727   0.862   4.116   4.310 -0.0209  0.1592 -0.6648
 2759SOL    HW2 9728   0.837   4.235   4.401  0.3840 -0.7340  0.6499
 2760SOL     OW 9729   4.651   4.996   2.019 -0.4852 -0.1779 -1.2516
 2760SOL    HW1 9730   4.641   5.010   2.113 -1.2042 -0.6580 -1.2445
 2760SOL    HW2 9731   4.616   5.076   1.979 -0.7930 -0.2427 -1.1192
 2761SOL     OW 9732   4.465   5.787   4.023  0.5290  0.2120 -0.2372
 2761SOL    HW1 9733   4.556   5.802   4.046  0.5460  0.1576 -0.2672
 2761SOL    HW2 9734   4.456   5.825   3.935  0.3285  0.9002  0.0779
 2762SOL     OW 9735   6.120   5.525   0.681  0.8895 -0.1486 -0.8750
 2762SOL    HW1 9736   6.148   5.617   0.681  0.2307  0.0833  0.4420
 2762SOL    HW2 9737   6.142   5.494   0.769  1.5267 -1.3972 -1.4662
 2763SOL     OW 9738   3.004   5.699   1.749 -0.3496  0.5861  0.5262
 2763SOL    HW1 9739   2.940   5.695   1.678 -1.1075 -0.7152  1.2429
 2763SOL    HW2 9740   2.951   5.715   1.828  0.1074 -0.9343  1.1864
 2764SOL     OW 9741   1.100   6.514   4.695  0.7137 -0.0164 -0.1501
 2764SOL    HW1 9742   1.107   6.427   4.735  0.4704 -0.3039 -0.7120
 2764SOL    HW2 9743   1.127   6.501   4.604  0.7291  0.5104 -0.2240
 2765SOL     OW 9744   6.522   3.766   0.361  0.7891  0.0025  0.3543
 2765SOL    HW1 9745   6.533   3.780   0.456  2.5531 -0.4114  0.2450
 2765SOL    HW2 9746   6.548   3.850   0.322  0.8736 -0.0960  0.2001
 2766SOL     OW 9747   6.973   2.663   1.360 -0.3168  0.2047  0.5170
 2766SOL    HW1 9748   6.972   2.587   1.419  0.6822  1.0296  1.6628
 2766SOL    HW2 9749   6.890   2.657   1.313 -1.5696 -0.0929  2.5875
 2767SOL     OW 9750   3.324   3.683   4.850  0.0470 -0.2691 -0.1512
 2767SOL    HW1 9751   3.257   3.713   4.788  0.1299 -3.3050 -1.8723
 2767SOL    HW2 9752   3.316   3.744   4.924 -2.6243  1.2340 -1.5010
 2768SOL     OW 9753   5.256   2.150   0.034  0.6550  0.2013  0.2257
 2768SOL    HW1 9754   5.256   2.232   0.085 -0.0927  1.0544 -1.0848
 2768SOL    HW2 9755   5.333   2.158  -0.022  0.2326  0.3075 -0.3453
 2769SOL     OW 9756   6.211   3.222   6.270 -0.1143  0.3948  0.3757
 2769SOL    HW1 9757   6.150   3.155   6.239 -0.2046  0.4224  0.4904
 2769SOL    HW2 9758   6.298   3.184   6.256 -0.1204  0.7150 -0.6180
 2770SOL     OW 9759   2.053   1.182   2.975  0.7210 -0.1434 -0.2857
 2770SOL    HW1 9760   2.089   1.162   2.888 -0.7190  0.4784 -1.0630
 2770SOL    HW2 9761   2.108   1.253   3.008  1.1204 -0.2045 -0.8061
 2771SOL     OW 9762   1.629   4.965   6.341 -0.4975 -0.0108 -0.2784
 2771SOL    HW1 9763   1.685   5.009   6.277  0.1399  0.8917  0.8729
 2771SOL    HW2 9764   1.540   4.985   6.313 -0.2234  0.9747 -0.4926
 2772SOL     OW 9765   1.494   4.742   5.907  0.1613  0.1260  0.6717
 2772SOL    HW1 9766   1.456   4.655   5.897 -0.0296  0.4577 -2.2309
 2772SOL    HW2 9767   1.421   4.798   5.931 -0.3452 -0.0201 -0.4689
 2773SOL     OW 9768   6.918   3.067   4.940  0.3103 -0.8273 -0.2839
 2773SOL    HW1 9769   6.934   3.153   4.980 -1.4501 -0.3842 -0.4267
 2773SOL    HW2 9770   7.005   3.029   4.928  1.1451  0.9711 -0.2819
 2774SOL     OW 9771   6.017   0.719   0.551 -0.0717 -0.2018 -0.5080
 2774SOL    HW1 9772   6.036   0.659   0.623  1.6963  1.6203  0.6528
 2774SOL    HW2 9773   6.026   0.806   0.589 -0.0505  0.8276 -2.7181
 2775SOL     OW 9774   1.096   4.957   2.155  0.0594 -0.1486 -0.5522
 2775SOL    HW1 9775   1.077   4.870   2.190  0.5123 -0.4488 -1.0371
 2775SOL    HW2 9776   1.016   4.983   2.109 -0.1980 -0.1553 -0.1164
 2776SOL     OW 9777   4.943   2.938   4.679  0.8588  0.1805  0.8810
 2776SOL    HW1 9778   4.919   2.859   4.728 -0.9930  0.4233  0.4631
 2776SOL    HW2 9779   4.976   2.905   4.595  0.2740 -0.1755  0.7816
 2777SOL     OW 9780   4.295   6.071   5.240 -0.1720  0.4230  0.4566
 2777SOL    HW1 9781   4.326   6.083   5.330 -0.8480 -1.3704  0.9904
 2777SOL    HW2 9782   4.222   6.009   5.249  0.5571 -0.7814 -1.4531
 2778SOL     OW 9783   2.146   6.904   1.108 -0.0003 -0.3633  0.3866
 2778SOL    HW1 9784   2.172   6.819   1.072 -1.4611 -0.7634  0.2057
 2778SOL    HW2 9785   2.130   6.958   1.031  0.9971  0.1209  0.5033
 2779SOL     OW 9786   1.467   4.144   4.386 -0.2156 -0.1314 -0.0208
 2779SOL    HW1 9787   1.486   4.214   4.449 -0.7442 -0.0443  0.0417
 2779SOL    HW2 9788   1.515   4.068   4.420  0.0147  0.0844  0.1399
 2780SOL     OW 9789   4.774   3.772   2.655 -0.0842  0.0690  0.6960
 2780SOL    HW1 9790   4.688   3.732   2.663  0.0401 -0.7281 -1.2287
 2780SOL    HW2 9791   4.829   3.704   2.617  0.9926  1.0329  0.4446
 2781SOL     OW 9792   4.521   2.877   1.761  0.2305 -0.5740 -0.3690
 2781SOL    HW1 9793   4.576   2.901   1.836 -0.2504 -0.5687 -0.0066
 2781SOL    HW2 9794   4.578   2.828   1.703  1.2427  1.3620 -1.0980
 2782SOL     OW 9795   1.761   2.868   2.110  0.6055 -0.1289  0.1450
 2782SOL    HW1 9796   1.690   2.822   2.154  0.1866  1.4187  1.1775
 2782SOL    HW2 9797   1.800   2.922   2.179  0.9382  1.1809 -1.0338
 2783SOL     OW 9798   1.002   3.910   6.260  0.3532  0.1276 -0.2938
 2783SOL    HW1 9799   1.072   3.882   6.319  0.2966  2.6827  1.1120
 2783SOL    HW2 9800   0.936   3.841   6.267  0.8648 -0.2144  1.7605
 2784SOL     OW 9801   4.956   4.568   6.580  0.4440  0.2195  0.0492
 2784SOL    HW1 9802   4.931   4.525   6.661  2.3904 -0.1021  0.5292
 2784SOL    HW2 9803   4.909   4.520   6.512 -0.8572  0.2082  0.9270
 2785SOL     OW 9804   1.527   1.930   3.252 -0.4052  0.4947 -0.2950
 2785SOL    HW1 9805   1.563   1.946   3.165  1.8337 -0.1787  0.4388
 2785SOL    HW2 9806   1.590   1.871   3.293 -2.0050 -0.1280  1.3959
 2786SOL     OW 9807   1.871   2.229   4.117 -0.1366  0.2789 -0.0854
 2786SOL    HW1 9808   1.947   2.288   4.125  0.2907 -0.3532  0.6364
 2786SOL    HW2 9809   1.849   2.206   4.207 -1.9823  1.4096 -0.1869
 2787SOL     OW 9810   1.957   2.720   4.410  0.4940 -0.0217  0.4209
 2787SOL    HW1 9811   1.909   2.656   4.463  0.2785 -0.5098 -0.3430
 2787SOL    HW2 9812   1.926   2.805   4.441  2.3885 -0.1600  3.0009
 2788SOL     OW 9813   1.929   2.548   0.784  0.3293 -0.1228 -0.4867
 2788SOL    HW1 9814   1.988   2.557   0.708  0.5748  0.5917 -0.2182
 2788SOL    HW2 9815   1.961   2.612   0.847 -0.1930 -0.3566  0.0267
 2789SOL     OW 9816   3.213   6.744   0.170  0.1614  0.1232  0.6288
 2789SOL    HW1 9817   3.283   6.766   0.230 -0.3940  0.2849  1.2342
 2789SOL    HW2 9818   3.195   6.652   0.186  2.5921 -0.9407 -2.0163
 2790SOL     OW 9819   5.399   4.200   1.512  0.2779  0.0823 -0.5752
 2790SOL    HW1 9820   5.358   4.279   1.476  2.9275  0.1652 -3.8104
 2790SOL    HW2 9821   5.473   4.232   1.562 -0.8825 -0.2768  1.4808
 2791SOL     OW 9822   2.408   2.984   4.755 -0.3306 -0.0008 -0.6759
 2791SOL    HW1 9823   2.339   2.918   4.744  1.6857 -2.4872  0.4488
 2791SOL    HW2 9824   2.410   3.002   4.849  0.4503  0.1348 -0.7100
 2792SOL     OW 9825   2.308   1.055   4.695  0.0234 -0.3651  0.6035
 2792SOL    HW1 9826   2.302   1.039   4.789 -1.6106 -0.3632  0.5312
 2792SOL    HW2 9827   2.330   1.148   4.688  0.7988 -0.5166  0.9776
 2793SOL     OW 9828   5.544   3.522   5.200  0.3820  0.3377 -0.6858
 2793SOL    HW1 9829   5.546   3.436   5.243 -0.0233  0.8865  0.4707
 2793SOL    HW2 9830   5.615   3.571   5.242 -0.0274  0.8866 -0.6282
 2794SOL     OW 9831   3.003   2.402   4.961 -0.1658 -0.4148  0.2447
 2794SOL    HW1 9832   3.028   2.490   4.989 -0.2066 -0.7005  1.2475
 2794SOL    HW2 9833   2.922   2.384   5.009 -0.1832 -0.9780  0.0121
 2795SOL     OW 9834   0.375   2.331   1.368  0.1325  0.2224  0.1820
 2795SOL    HW1 9835   0.353   2.341   1.275  0.6250  0.9999  0.1380
 2795SOL    HW2 9836   0.329   2.403   1.411  0.8045  0.5398  0.3814
 2796SOL     OW 9837   0.443   4.344   5.652  0.4179 -0.0891 -0.2572
 2796SOL    HW1 9838   0.407   4.389   5.575  1.8875  1.2527 -0.2098
 2796SOL    HW2 9839   0.431   4.251   5.633  1.9501  0.1259 -2.7737
 2797SOL     OW 9840   6.527   2.162   4.909 -0.2217 -0.2240  0.1040
 2797SOL    HW1 9841   6.460   2.099   4.936 -0.3694 -0.5557 -1.0221
 2797SOL    HW2 9842   6.489   2.247   4.931 -1.0766 -0.3983 -0.6260
 2798SOL     OW 9843   3.323   1.356   6.520 -0.5563  0.1838 -0.2540
 2798SOL    HW1 9844   3.337   1.294   6.591 -1.0160  1.3236  0.8633
 2798SOL    HW2 9845   3.228   1.361   6.511 -0.5160  0.5210 -0.5093
 2799SOL     OW 9846   0.141   0.416   1.840  0.2854  0.3110 -0.3554
 2799SOL    HW1 9847   0.154   0.326   1.870  0.7683  0.6052  0.3439
 2799SOL    HW2 9848   0.057   0.443   1.878  0.1628  0.1788 -0.5285
 2800SOL     OW 9849   4.412   6.318   4.361 -0.0103 -0.4135  0.7888
 2800SOL    HW1 9850   4.339   6.273   4.405 -0.3226  0.5741  1.2990
 2800SOL    HW2 9851   4.379   6.406   4.345  1.0269 -0.0024  0.8823
 2801SOL     OW 9852   4.345   2.653   3.014  0.4425  0.6829  0.3867
 2801SOL    HW1 9853   4.252   2.675   3.015  0.5183  1.1169 -0.5760
 2801SOL    HW2 9854   4.358   2.606   2.931  1.0400  0.4665  0.5970
 2802SOL     OW 9855   0.783   0.860   6.367  0.1172  0.7070  0.2754
 2802SOL    HW1 9856   0.809   0.944   6.403  0.9450  1.4344 -1.8854
 2802SOL    HW2 9857   0.749   0.880   6.280  0.9818 -1.2361 -0.5691
 2803SOL     OW 9858   2.894   0.988   5.141 -0.4335 -0.2050 -0.4373
 2803SOL    HW1 9859   2.917   1.016   5.229 -0.4801 -1.1179 -0.1263
 2803SOL    HW2 9860   2.831   0.917   5.153  0.3217 -1.0447 -1.1591
 2804SOL     OW 9861   0.116   0.562   6.328  0.3208  0.3059 -0.1445
 2804SOL    HW1 9862   0.176   0.591   6.259 -0.5391  0.5772 -0.8073
 2804SOL    HW2 9863   0.046   0.516   6.281  0.6821 -1.2050  0.7283
 2805SOL     OW 9864   3.388   2.883   1.757 -0.4242 -0.1134 -0.7303
 2805SOL    HW1 9865   3.414   2.792   1.749  3.4148  0.5917  1.3596
 2805SOL    HW2 9866   3.455   2.932   1.709 -0.1137  1.7419  1.4060
 2806SOL     OW 9867   0.907   6.417   3.741  0.4190 -0.7387 -1.3873
 2806SOL    HW1 9868   0.917   6.333   3.785 -0.0024 -0.4079 -0.6373
 2806SOL    HW2 9869   0.993   6.459   3.747  0.1373 -0.3079 -0.0381
 2807SOL     OW 9870   1.503   2.609   2.445 -0.0001 -0.3191  0.1775
 2807SOL    HW1 9871   1.571   2.552   2.411 -0.6722 -0.5503 -0.8001
 2807SOL    HW2 9872   1.505   2.686   2.388  1.6137  1.1810  2.0978
 2808SOL     OW 9873   2.404   1.689   5.085  0.4736  0.4415 -0.9687
 2808SOL    HW1 9874   2.363   1.767   5.122  0.2963  1.1714 -2.6332
 2808SOL    HW2 9875   2.497   1.700   5.105  0.2575  0.2234  0.2550
 2809SOL     OW 9876   6.669   4.106   2.013 -0.0483 -0.2129  0.3931
 2809SOL    HW1 9877   6.575   4.118   2.026  0.2271  0.9033  1.5900
 2809SOL    HW2 9878   6.682   4.112   1.919 -1.2298 -0.8629  0.1748
 2810SOL     OW 9879   2.976   4.992   0.576 -0.1537 -0.8061  0.2525
 2810SOL    HW1 9880   2.930   4.912   0.551 -0.1698 -0.7829  0.2080
 2810SOL    HW2 9881   2.914   5.063   0.557  0.1529 -0.7195 -0.4595
 2811SOL     OW 9882   4.663   3.626   2.947  0.2540 -0.1287 -0.3749
 2811SOL    HW1 9883   4.589   3.684   2.931  0.9773  1.0956  0.4837
 2811SOL    HW2 9884   4.738   3.685   2.955  1.2048 -1.2762 -0.5195
 2812SOL     OW 9885   1.897   4.389   2.145 -0.2740  0.3905 -0.0367
 2812SOL    HW1 9886   1.852   4.376   2.228  0.2556  0.3992  0.2517
 2812SOL    HW2 9887   1.826   4.409   2.083 -0.7805 -0.6139  0.1874
 2813SOL     OW 9888   0.781   3.239   5.663  0.3654 -0.2488  0.5129
 2813SOL    HW1 9889   0.757   3.201   5.578  1.9126 -0.9839  0.3684
 2813SOL    HW2 9890   0.721   3.197   5.725 -1.3597  0.9222 -0.2761
 2814SOL     OW 9891   0.285   5.667   1.815  0.7018  0.1418  0.2902
 2814SOL    HW1 9892   0.335   5.621   1.883 -1.1300 -0.8029  1.0663
 2814SOL    HW2 9893   0.296   5.760   1.836  1.9107 -0.0458  0.5687
 2815SOL     OW 9894   4.231   0.376   6.858  0.1143  0.4711 -0.0086
 2815SOL    HW1 9895   4.246   0.302   6.799  1.2723  0.9837 -0.3847
 2815SOL    HW2 9896   4.297   0.366   6.926 -0.9689  0.0998  1.0220
 2816SOL     OW 9897   0.609   4.378   6.774 -0.0966 -0.4064  0.2324
 2816SOL    HW1 9898   0.668   4.354   6.703  0.5496 -1.9391  1.2271
 2816SOL    HW2 9899   0.657   4.354   6.854 -1.4051 -0.1584  1.1291
 2817SOL     OW 9900   7.036   6.520   4.473 -0.5403  0.3868 -0.0001
 2817SOL    HW1 9901   6.996   6.510   4.387  0.6048  0.6774 -0.5856
 2817SOL    HW2 9902   7.078   6.606   4.470 -1.6158  1.0133  1.3379
 2818SOL     OW 9903   6.989   1.463   6.975  0.0438  0.0566 -0.0954
 2818SOL    HW1 9904   7.064   1.437   7.029  1.1874  0.6245 -1.3447
 2818SOL    HW2 9905   7.028   1.490   6.891 -1.5317  0.7055 -0.6590
 2819SOL     OW 9906   5.066   1.221   0.237 -0.7349  0.1861 -0.5752
 2819SOL    HW1 9907   5.115   1.301   0.258 -0.7170 -0.3761  1.7991
 2819SOL    HW2 9908   4.989   1.252   0.190 -1.1365  1.7176  1.0011
 2820SOL     OW 9909   0.033   4.065   6.771 -0.0874 -0.1692  0.0548
 2820SOL    HW1 9910  -0.027   4.096   6.703  0.0692 -0.5024 -0.2419
 2820SOL    HW2 9911   0.030   3.969   6.763  1.1727 -0.1808 -0.5806
 2821SOL     OW 9912   4.071   0.226   4.722  0.6744  0.0850 -0.3599
 2821SOL    HW1 9913   4.009   0.232   4.795 -0.0982 -0.4247 -0.9664
 2821SOL    HW2 9914   4.018   0.203   4.646  1.4104  1.0027 -1.1886
 2822SOL     OW 9915   1.337   1.133   5.709 -0.4578 -0.2354 -0.6162
 2822SOL    HW1 9916   1.339   1.042   5.679  1.0544 -0.4773  0.1028
 2822SOL    HW2 9917   1.379   1.182   5.639  2.0889 -0.6492  0.5254
 2823SOL     OW 9918   1.139   3.143   5.531 -0.2448 -0.4884  0.5337
 2823SOL    HW1 9919   1.215   3.084   5.532 -1.2004 -1.8383 -1.3461
 2823SOL    HW2 9920   1.172   3.224   5.572  2.1965 -1.0218 -0.1665
 2824SOL     OW 9921   6.201   6.669   6.532  0.0241  0.7669  0.4149
 2824SOL    HW1 9922   6.166   6.692   6.446  0.9195  0.3193 -0.0765
 2824SOL    HW2 9923   6.163   6.584   6.551  0.7061  0.3501 -0.0513
 2825SOL     OW 9924   2.993   3.539   1.090 -0.8595  0.0328  0.6313
 2825SOL    HW1 9925   2.960   3.452   1.066 -0.0211 -0.0515 -0.2496
 2825SOL    HW2 9926   3.069   3.552   1.035 -1.7255  1.8835 -0.2049
 2826SOL     OW 9927   4.506   6.717   7.018 -0.4912  0.7965 -0.0394
 2826SOL    HW1 9928   4.504   6.807   7.051 -2.0621  0.7580  0.0587
 2826SOL    HW2 9929   4.422   6.679   7.047  0.6282 -1.0835  0.9685
 2827SOL     OW 9930   2.093   2.879   3.569 -0.4698 -0.0286 -0.1805
 2827SOL    HW1 9931   2.000   2.856   3.566 -0.6467  0.6617 -0.1666
 2827SOL    HW2 9932   2.134   2.805   3.614 -0.8948 -0.6952 -0.8656
 2828SOL     OW 9933   4.911   1.228   1.064  0.3656 -0.0737 -0.4394
 2828SOL    HW1 9934   4.957   1.201   1.143  0.1584  2.7023  0.7495
 2828SOL    HW2 9935   4.972   1.208   0.993  1.9828  0.3593  0.7613
 2829SOL     OW 9936   4.712   4.875   6.772 -0.1733  0.2898 -0.2091
 2829SOL    HW1 9937   4.756   4.880   6.857 -0.9475 -2.1882  0.3979
 2829SOL    HW2 9938   4.656   4.953   6.770  0.3475  0.7406  1.2505
 2830SOL     OW 9939   4.988   7.083   6.283 -0.0971 -0.4280 -0.1809
 2830SOL    HW1 9940   4.937   7.051   6.209  0.1396 -0.3539 -0.3755
 2830SOL    HW2 9941   5.053   7.015   6.298 -0.3724 -0.6140  0.1910
 2831SOL     OW 9942   3.247   0.896   5.647  0.1665 -0.1448 -0.6015
 2831SOL    HW1 9943   3.323   0.840   5.634  0.0171 -0.4860 -0.0231
 2831SOL    HW2 9944   3.254   0.926   5.738 -0.5362 -0.4027 -0.4567
 2832SOL     OW 9945   7.102   1.790   5.272 -0.2182 -0.2364 -0.1672
 2832SOL    HW1 9946   7.174   1.783   5.334 -0.0965 -1.0655 -0.3929
 2832SOL    HW2 9947   7.038   1.726   5.302 -1.2948  1.1349  0.5698
 2833SOL     OW 9948   0.608   5.082   5.311  0.1931  0.6164  0.0756
 2833SOL    HW1 9949   0.565   5.103   5.228  2.1636  1.3997 -0.8298
 2833SOL    HW2 9950   0.679   5.023   5.286 -0.1538 -0.4290  1.4573
 2834SOL     OW 9951   4.268   0.007   4.177  0.3701 -0.2966 -0.2934
 2834SOL    HW1 9952   4.188  -0.038   4.149  0.4154 -0.6696  0.1786
 2834SOL    HW2 9953   4.248   0.100   4.163  0.0592 -0.4164 -0.7023
 2835SOL     OW 9954   2.317   4.899   1.071  0.0799  0.3516 -0.1022
 2835SOL    HW1 9955   2.318   4.911   0.976 -1.4139  0.7056 -0.1004
 2835SOL    HW2 9956   2.360   4.814   1.085 -0.2651 -0.0131 -1.1519
 2836SOL     OW 9957   3.539   3.710   5.680  0.1220 -0.3314 -0.7712
 2836SOL    HW1 9958   3.568   3.801   5.689  1.3323 -0.8630  1.4913
 2836SOL    HW2 9959   3.620   3.659   5.675 -0.4991 -1.4290 -0.0060
 2837SOL     OW 9960   2.990   0.101   6.100  0.1904  0.2734  0.1115
 2837SOL    HW1 9961   2.966   0.188   6.069  0.7707  0.4632  0.1734
 2837SOL    HW2 9962   2.924   0.043   6.064  0.3619  0.6025 -0.7644
 2838SOL     OW 9963   6.900   1.835   2.310  0.2254  0.0486  0.6550
 2838SOL    HW1 9964   6.822   1.835   2.255 -1.0983 -0.1507  2.4369
 2838SOL    HW2 9965   6.952   1.909   2.279 -0.2068 -0.3573 -1.1450
 2839SOL     OW 9966   0.355   6.000   2.546 -0.0550  0.0482 -0.6094
 2839SOL    HW1 9967   0.260   5.992   2.548 -0.0440  0.0939  0.8627
 2839SOL    HW2 9968   0.374   6.083   2.589  0.6330  0.3554 -1.4634
 2840SOL     OW 9969   1.347   5.943   5.868 -0.0447 -1.1911  1.3394
 2840SOL    HW1 9970   1.346   5.859   5.913  2.3361 -2.7724 -1.2707
 2840SOL    HW2 9971   1.417   5.992   5.911  0.4500 -1.6591  1.0762
 2841SOL     OW 9972   6.748   5.063   5.208 -0.1840 -0.0036 -0.1012
 2841SOL    HW1 9973   6.687   5.113   5.262  1.0410 -0.2074  1.5123
 2841SOL    HW2 9974   6.704   5.058   5.122 -1.5480  1.4881  0.4521
 2842SOL     OW 9975   2.398   3.071   5.722  0.0845  0.5990  0.4516
 2842SOL    HW1 9976   2.342   2.994   5.727  0.4727  0.1121 -1.7606
 2842SOL    HW2 9977   2.462   3.058   5.793 -1.3652  0.2075  1.7424
 2843SOL     OW 9978   1.051   4.448   2.406 -0.6405 -0.1802  0.3670
 2843SOL    HW1 9979   1.141   4.457   2.375 -0.4422 -2.3092  0.1962
 2843SOL    HW2 9980   1.000   4.502   2.346  0.1913 -1.2679 -1.4217
 2844SOL     OW 9981   7.101   2.522   2.978 -0.2715  0.1680 -0.5282
 2844SOL    HW1 9982   7.058   2.540   3.061  1.7751 -0.3264  0.7030
 2844SOL    HW2 9983   7.179   2.577   2.978  1.0003 -1.5456 -1.0260
 2845SOL     OW 9984   3.665   2.041   5.881 -0.0325 -0.0735 -0.0666
 2845SOL    HW1 9985   3.748   2.003   5.909 -0.3154 -0.5195  0.1718
 2845SOL    HW2 9986   3.598   1.985   5.919 -0.4384 -1.0789 -2.1220
 2846SOL     OW 9987   0.068   2.325   4.555 -0.3125 -0.1102 -0.2168
 2846SOL    HW1 9988   0.140   2.310   4.616 -0.3030 -0.3955 -0.2956
 2846SOL    HW2 9989   0.011   2.388   4.600 -0.0109  0.1271 -0.1602
 2847SOL     OW 9990   4.485   6.315   2.922 -0.5486 -0.2595  0.4825
 2847SOL    HW1 9991   4.488   6.401   2.881  0.3442 -0.9404 -0.9635
 2847SOL    HW2 9992   4.576   6.295   2.942 -0.5648 -1.4356 -0.5022
 2848SOL     OW 9993   3.820   0.240   5.342  0.2934 -0.1159  0.1754
 2848SOL    HW1 9994   3.901   0.207   5.304  0.6325  0.1560  0.6427
 2848SOL    HW2 9995   3.754   0.176   5.317  0.4201  0.2578 -1.2056
 2849SOL     OW 9996   3.711   6.590   5.907  0.1467  0.4808 -0.2153
 2849SOL    HW1 9997   3.666   6.548   5.834  1.5426  1.1827 -1.5403
 2849SOL    HW2 9998   3.698   6.532   5.981  0.0996 -1.1213 -1.4418
 2850SOL     OW 9999   2.116   1.888   2.767 -0.7377  0.2613  0.0374
 2850SOL    HW110000   2.043   1.847   2.813  0.6850  0.1528  2.3282
 2850SOL    HW210001   2.147   1.820   2.707 -0.4463 -0.9010  1.4512
 2851SOL     OW10002   0.259   3.133   4.233  0.4012 -0.4041  0.6095
 2851SOL    HW110003   0.183   3.134   4.175  0.7778 -1.5964  0.0705
 2851SOL    HW210004   0.252   3.214   4.283 -1.1904 -0.4627  0.5276
 2852SOL     OW10005   0.321   0.855   4.382 -0.3692  0.0824  0.1281
 2852SOL    HW110006   0.321   0.759   4.383  0.7207  0.0546 -0.2743
 2852SOL    HW210007   0.324   0.880   4.474 -1.1398 -0.2567  0.2506
 2853SOL     OW10008   6.600   0.237   0.115 -0.0463  0.0082  0.5087
 2853SOL    HW110009   6.526   0.259   0.171 -1.4665  0.2806 -1.3895
 2853SOL    HW210010   6.564   0.177   0.049  1.4595 -0.0292 -0.3265
 2854SOL     OW10011   4.572   5.476   1.581 -0.1007  0.7493 -0.0248
 2854SOL    HW110012   4.554   5.396   1.532 -1.2802  1.5152 -0.9281
 2854SOL    HW210013   4.650   5.456   1.633 -0.4156 -0.9943 -0.1542
 2855SOL     OW10014   3.443   6.910   2.204  0.0343  0.2982 -0.2535
 2855SOL    HW110015   3.517   6.905   2.265 -0.1871 -0.8359 -0.0540
 2855SOL    HW210016   3.482   6.894   2.118  0.0225 -0.4642 -0.1310
 2856SOL     OW10017   0.326   1.985   6.834  0.0959  0.5027  0.2126
 2856SOL    HW110018   0.284   1.950   6.912 -0.8949  1.9952  0.3894
 2856SOL    HW210019   0.253   2.012   6.778  0.8058  0.5800 -0.6995
 2857SOL     OW10020   3.055   5.296   6.688  0.2683  0.3719  0.0735
 2857SOL    HW110021   2.983   5.320   6.746  1.2600  0.0192  1.5186
 2857SOL    HW210022   3.133   5.330   6.733  1.5069 -3.3243  1.0223
 2858SOL     OW10023   2.822   5.588   6.085 -0.1011 -0.0955 -0.1458
 2858SOL    HW110024   2.831   5.612   6.177  2.4522 -0.8708 -0.1112
 2858SOL    HW210025   2.728   5.573   6.073 -0.6513  1.2161  1.9866
 2859SOL     OW10026   4.321   5.706   6.341 -0.0542 -0.5724 -0.2402
 2859SOL    HW110027   4.243   5.690   6.393  0.0567  0.3740  0.2449
 2859SOL    HW210028   4.332   5.627   6.288 -1.7020 -0.4460 -0.7972
 2860SOL     OW10029   2.578   3.894   0.031  0.0316 -0.4500 -0.2670
 2860SOL    HW110030   2.606   3.979   0.065  1.3516 -0.8291 -0.3570
 2860SOL    HW210031   2.590   3.901  -0.064  2.2988 -1.4294 -0.1244
 2861SOL     OW10032   5.173   6.915   3.800 -0.2057  0.1022  0.1673
 2861SOL    HW110033   5.207   6.988   3.851 -1.0222  1.2210 -0.8486
 2861SOL    HW210034   5.168   6.948   3.711  0.5157 -1.5933 -0.5426
 2862SOL     OW10035   0.906   6.273   2.012  0.2122  0.2919 -0.2426
 2862SOL    HW110036   0.921   6.186   1.974 -0.6331  0.6777 -1.5084
 2862SOL    HW210037   0.979   6.326   1.979  0.7232  0.0928  0.5231
 2863SOL     OW10038   4.170   6.220   2.330  0.0303  0.7625  0.2454
 2863SOL    HW110039   4.096   6.226   2.391 -0.5591  1.8344 -0.5451
 2863SOL    HW210040   4.136   6.167   2.257  0.6506 -0.2972  0.6990
 2864SOL     OW10041   2.914   4.452   0.678 -0.6253  0.1585 -0.0167
 2864SOL    HW110042   2.909   4.364   0.715  1.3237 -0.2227 -0.5585
 2864SOL    HW210043   2.898   4.439   0.584  0.7720  0.1794 -0.2820
 2865SOL     OW10044   4.065   5.059   2.230  0.3700  0.5035  1.4715
 2865SOL    HW110045   3.979   5.033   2.197  0.1028  1.1836  1.6103
 2865SOL    HW210046   4.048   5.138   2.282  1.3852  2.1478 -0.5445
 2866SOL     OW10047   1.509   4.740   3.938  0.5812 -0.0781 -0.3011
 2866SOL    HW110048   1.514   4.808   4.005  2.6662 -0.9807  0.5358
 2866SOL    HW210049   1.430   4.761   3.888 -0.4625  1.2228  1.7753
 2867SOL     OW10050   3.481   3.433   1.504  0.7324  0.1625  0.7205
 2867SOL    HW110051   3.390   3.406   1.491  1.0489 -0.5804 -0.0391
 2867SOL    HW210052   3.477   3.529   1.506 -0.2276  0.1244  2.0607
 2868SOL     OW10053   6.761   0.735   1.747  0.5269 -0.6092 -0.0159
 2868SOL    HW110054   6.851   0.701   1.742  0.2131 -1.5389  0.5094
 2868SOL    HW210055   6.706   0.658   1.737 -0.2074 -0.2116  0.8572
 2869SOL     OW10056   2.717   0.590   4.951 -0.0903  0.4307 -0.0347
 2869SOL    HW110057   2.711   0.513   5.009 -0.6537  1.3395  1.1653
 2869SOL    HW210058   2.727   0.664   5.011 -0.5970  1.4039 -1.1160
 2870SOL     OW10059   0.725   2.034   6.251 -0.2958 -0.5129  0.4549
 2870SOL    HW110060   0.720   1.999   6.340  0.6128  1.0496  1.1698
 2870SOL    HW210061   0.640   2.015   6.213 -0.5601 -1.5907  1.4976
 2871SOL     OW10062   2.562   2.044   1.405 -0.0043  0.0062  0.0710
 2871SOL    HW110063   2.478   2.004   1.381  0.5897 -0.9599 -0.4859
 2871SOL    HW210064   2.619   2.024   1.331  0.4785  1.4560  0.0204
 2872SOL     OW10065   6.234   6.891   5.884  0.3030  0.0805  0.1662
 2872SOL    HW110066   6.155   6.887   5.829 -0.1870  1.0909  0.7688
 2872SOL    HW210067   6.305   6.911   5.822  0.1967 -1.3665 -0.4573
 2873SOL     OW10068   6.237   0.353   6.956  0.1853  0.6493 -0.4612
 2873SOL    HW110069   6.293   0.298   6.902 -0.5603  0.6037 -1.2075
 2873SOL    HW210070   6.255   0.325   7.045  0.7361  0.0687 -0.7444
 2874SOL     OW10071   2.372   4.443   6.497 -0.1889 -0.6723 -0.0789
 2874SOL    HW110072   2.419   4.448   6.414 -0.2049 -0.2771 -0.0662
 2874SOL    HW210073   2.310   4.371   6.485 -0.5933 -0.2490 -0.6224
 2875SOL     OW10074   1.595   3.313   4.880 -0.1970  0.5414  0.4304
 2875SOL    HW110075   1.584   3.408   4.885  1.1073  0.7566 -0.4867
 2875SOL    HW210076   1.582   3.282   4.970 -2.8815  1.2928  0.4071
 2876SOL     OW10077   6.602   3.751   4.996 -0.1122 -0.1271 -0.4624
 2876SOL    HW110078   6.529   3.689   4.988  0.2271 -0.3212 -2.3081
 2876SOL    HW210079   6.673   3.700   5.036 -0.4477 -0.3835 -0.1865
 2877SOL     OW10080   2.814   5.795   3.053 -0.2107 -0.0372  0.4040
 2877SOL    HW110081   2.874   5.859   3.014 -1.6926  0.7133 -0.7179
 2877SOL    HW210082   2.740   5.792   2.993  0.2234 -3.5901 -0.1683
 2878SOL     OW10083   2.637   6.799   4.174 -0.3266 -0.2241 -0.4031
 2878SOL    HW110084   2.595   6.878   4.208 -1.1501 -0.4207 -0.9304
 2878SOL    HW210085   2.576   6.729   4.196  1.4395 -1.0960  2.0917
 2879SOL     OW10086   3.185   0.105   3.996 -0.2309  0.4879  0.7769
 2879SOL    HW110087   3.211   0.168   3.930  0.2742 -1.8181 -1.4004
 2879SOL    HW210088   3.267   0.063   4.023 -0.8042 -2.5502 -1.5633
 2880SOL     OW10089   2.630   5.208   0.254 -0.0894 -0.4554  0.1838
 2880SOL    HW110090   2.549   5.254   0.231  0.6755 -0.0684 -2.0578
 2880SOL    HW210091   2.658   5.167   0.171  1.5358 -1.3228  1.1059
 2881SOL     OW10092   2.455   4.437   0.337 -0.1140  1.2148  0.0358
 2881SOL    HW110093   2.397   4.506   0.370 -0.9687  0.2919  0.5229
 2881SOL    HW210094   2.396   4.364   0.315  0.6807  0.9428 -1.3087
 2882SOL     OW10095   5.195   5.650   3.830 -0.2097  0.3401  0.2544
 2882SOL    HW110096   5.127   5.701   3.786 -0.3426  0.0416  0.1079
 2882SOL    HW210097   5.273   5.663   3.775 -0.2656  0.3131  0.1683
 2883SOL     OW10098   3.394   1.896   4.192  0.4046 -0.0385 -0.0586
 2883SOL    HW110099   3.454   1.833   4.233  1.4828  1.7576  1.2732
 2883SOL    HW210100   3.451   1.955   4.143 -0.5601  0.0448 -1.1055
 2884SOL     OW10101   6.668   4.740   0.420  0.1126  0.5044 -0.4870
 2884SOL    HW110102   6.617   4.794   0.360 -0.5116 -0.7947 -1.1702
 2884SOL    HW210103   6.604   4.701   0.479  0.2960 -0.9832 -1.2269
 2885SOL     OW10104   2.655   3.507   2.005 -0.5008 -0.0578  0.3232
 2885SOL    HW110105   2.569   3.547   2.013  0.8458  3.2163  0.1930
 2885SOL    HW210106   2.706   3.545   2.077  0.8872 -1.8611  0.3802
 2886SOL     OW10107   0.588   5.862   1.618 -0.3263  0.6752 -0.1841
 2886SOL    HW110108   0.568   5.821   1.702  0.2355  0.8566  0.0484
 2886SOL    HW210109   0.552   5.803   1.552 -0.6001  0.4338  0.1821
 2887SOL     OW10110   5.140   4.716   4.794  0.2107 -0.2959  0.9343
 2887SOL    HW110111   5.110   4.685   4.708 -1.0899 -0.1110  1.2991
 2887SOL    HW210112   5.066   4.699   4.853  0.6019  0.7236  1.7514
 2888SOL     OW10113   5.419   7.053   1.792 -0.0301  0.3932  0.2377
 2888SOL    HW110114   5.496   7.076   1.844  0.7955 -1.3577 -0.1653
 2888SOL    HW210115   5.370   6.992   1.848  0.0891 -0.3311 -0.4480
 2889SOL     OW10116   1.246   4.028   4.524  0.4231  0.2135  0.9222
 2889SOL    HW110117   1.194   4.108   4.530 -2.7225 -1.4420 -1.3459
 2889SOL    HW210118   1.322   4.054   4.472  0.0544  1.9519  1.1740
 2890SOL     OW10119   6.336   3.179   2.307  0.0466 -0.2053 -0.3278
 2890SOL    HW110120   6.403   3.140   2.253 -0.3225 -0.3844 -0.6611
 2890SOL    HW210121   6.378   3.255   2.347  0.4426 -0.3191 -0.5293
 2891SOL     OW10122   4.318   1.498   1.090  0.3035  0.8451  0.0228
 2891SOL    HW110123   4.304   1.454   1.174 -1.0435  1.1642 -0.0047
 2891SOL    HW210124   4.339   1.588   1.113  1.5022  0.5684  0.0435
 2892SOL     OW10125   4.343   4.182   1.270  0.6034 -0.6386 -0.1258
 2892SOL    HW110126   4.346   4.088   1.286  0.9463 -0.6791 -0.4138
 2892SOL    HW210127   4.260   4.196   1.224  0.9706 -0.9308 -0.8840
 2893SOL     OW10128   1.817   1.270   4.958 -0.5959  0.3027 -0.1809
 2893SOL    HW110129   1.899   1.224   4.939 -2.3161 -2.9849 -0.4190
 2893SOL    HW210130   1.784   1.297   4.872 -2.1833 -3.1616 -0.8433
 2894SOL     OW10131   0.658   3.508   0.995  0.2372 -0.0561  0.1415
 2894SOL    HW110132   0.568   3.539   1.000 -0.8540 -2.7036 -1.0919
 2894SOL    HW210133   0.689   3.537   0.910 -0.1983 -0.8314 -0.2974
 2895SOL     OW10134   4.352   6.577   3.947 -0.3387  0.4217  0.3068
 2895SOL    HW110135   4.420   6.621   3.998  0.1418 -1.4340  1.3840
 2895SOL    HW210136   4.275   6.577   4.004 -0.9762  1.5977 -0.4995
 2896SOL     OW10137   5.377   5.039   2.471 -1.0271  0.0940  0.4969
 2896SOL    HW110138   5.345   5.109   2.527 -1.7532 -0.8016  1.2369
 2896SOL    HW210139   5.470   5.031   2.493 -0.8146  1.1329  0.0440
 2897SOL     OW10140   1.488   1.595   3.547  0.0863  0.1250  0.3887
 2897SOL    HW110141   1.420   1.584   3.480 -1.5365 -0.9186  2.1015
 2897SOL    HW210142   1.568   1.564   3.505 -0.8827 -0.5346 -1.0572
 2898SOL     OW10143   1.151   4.163   5.056 -0.3319 -0.2110 -0.3292
 2898SOL    HW110144   1.175   4.097   5.121 -0.7079 -0.6829 -0.6619
 2898SOL    HW210145   1.106   4.231   5.106 -1.2027 -0.8835 -0.1908
 2899SOL     OW10146   0.956   3.524   6.801 -0.1877  0.0184 -0.3459
 2899SOL    HW110147   1.022   3.524   6.731  0.0976  2.0059 -0.1221
 2899SOL    HW210148   0.873   3.506   6.756  0.4452 -2.9438 -0.5816
 2900SOL     OW10149   5.378   6.337   6.724 -0.2567  0.1642  0.1741
 2900SOL    HW110150   5.366   6.432   6.718  1.2028  0.3322 -0.3844
 2900SOL    HW210151   5.323   6.311   6.798 -1.1515  1.3442 -0.0393
 2901SOL     OW10152   4.523   2.450   2.347 -0.1182  0.3246  0.4951
 2901SOL    HW110153   4.522   2.521   2.411  3.5979  0.6889  0.3561
 2901SOL    HW210154   4.535   2.494   2.263 -2.0251 -0.3269 -0.1739
 2902SOL     OW10155   4.448   4.846   2.441 -0.3877  0.3225  0.0845
 2902SOL    HW110156   4.353   4.832   2.447  0.0156 -2.3153  3.7486
 2902SOL    HW210157   4.480   4.832   2.530  3.6886 -0.9725 -1.3586
 2903SOL     OW10158   0.615   4.116   6.433  0.2818 -0.0361 -0.3609
 2903SOL    HW110159   0.521   4.119   6.448  0.5117  1.5830  0.9831
 2903SOL    HW210160   0.633   4.025   6.410 -1.2526 -0.9512  1.8145
 2904SOL     OW10161   4.321   4.405   2.588  0.4975 -0.2971 -0.3605
 2904SOL    HW110162   4.248   4.464   2.607  0.2217 -0.6250 -0.3932
 2904SOL    HW210163   4.285   4.341   2.526  0.9726 -0.1218 -0.8216
 2905SOL     OW10164   5.197   6.560   3.042  0.7067  0.7018  0.1918
 2905SOL    HW110165   5.104   6.584   3.047  0.1377 -1.0010 -1.2634
 2905SOL    HW210166   5.224   6.589   2.955  0.5462 -1.8896 -0.7969
 2906SOL     OW10167   2.720   6.592   2.863 -0.5114 -0.3088 -0.5458
 2906SOL    HW110168   2.663   6.669   2.869 -2.2141 -1.4350 -1.2640
 2906SOL    HW210169   2.687   6.533   2.931 -1.6707 -1.8254 -2.3080
 2907SOL     OW10170   6.488   5.893   4.051 -0.2622 -0.0140 -0.5101
 2907SOL    HW110171   6.436   5.962   4.091  0.9968 -0.9722  3.2178
 2907SOL    HW210172   6.443   5.812   4.076  1.1611 -0.7017 -0.0776
 2908SOL     OW10173   1.245   3.038   0.081  0.6933 -0.2460  0.2783
 2908SOL    HW110174   1.181   3.023   0.150 -1.2194  3.0063 -0.5827
 2908SOL    HW210175   1.303   3.105   0.117 -0.3138  1.4684 -1.1287
 2909SOL     OW10176   3.101   3.480   6.950  0.0309  0.0182 -0.4516
 2909SOL    HW110177   3.078   3.525   6.869  1.3180  0.5419 -0.5565
 2909SOL    HW210178   3.038   3.408   6.957 -0.9551  0.7850 -1.1967
 2910SOL     OW10179   5.868   4.609   0.259 -0.0331  1.0983  0.3024
 2910SOL    HW110180   5.795   4.593   0.318 -0.9228 -0.2916 -1.0817
 2910SOL    HW210181   5.827   4.629   0.175  1.1899  2.2324 -0.0581
 2911SOL     OW10182   2.415   6.197   6.772 -0.1604 -0.3800 -0.1417
 2911SOL    HW110183   2.339   6.194   6.713 -0.0045 -1.1016 -0.3105
 2911SOL    HW210184   2.421   6.109   6.809 -0.5810  0.2043  1.3958
 2912SOL     OW10185   7.102   4.346   0.801  0.1373  0.6842 -0.2952
 2912SOL    HW110186   7.175   4.346   0.863 -0.7333  3.2282  0.8817
 2912SOL    HW210187   7.086   4.438   0.784  0.1351  0.1078 -4.2089
 2913SOL     OW10188   1.278   3.468   0.628 -0.4205  0.3212  0.1697
 2913SOL    HW110189   1.335   3.513   0.566 -0.0702 -1.9827 -1.2980
 2913SOL    HW210190   1.324   3.475   0.712  0.6560  0.8488 -0.4370
 2914SOL     OW10191   4.694   1.283   3.168  0.7567  0.4016 -0.0444
 2914SOL    HW110192   4.697   1.188   3.174 -1.1138  0.2509 -0.7757
 2914SOL    HW210193   4.670   1.300   3.077  1.2274  1.5879  0.0388
 2915SOL     OW10194   0.104   0.512   3.036 -0.1044 -0.4285  0.0016
 2915SOL    HW110195   0.157   0.567   3.094 -1.1274  2.4673 -1.5839
 2915SOL    HW210196   0.163   0.441   3.010  1.9123  0.8284  0.8449
 2916SOL     OW10197   0.069   0.601   0.337 -0.1962  0.7993 -0.0968
 2916SOL    HW110198   0.076   0.672   0.273 -1.3634 -0.4699 -1.7077
 2916SOL    HW210199   0.038   0.526   0.287  2.1581 -1.2605  1.2669
 2917SOL     OW10200   3.076   2.836   3.071  0.2617 -0.1450 -0.1286
 2917SOL    HW110201   3.052   2.792   2.989  1.6918  0.8161 -1.1199
 2917SOL    HW210202   3.150   2.785   3.104  0.1857 -0.0672  0.1604
 2918SOL     OW10203   2.969   0.215   1.749  0.3505  0.1726  0.4355
 2918SOL    HW110204   2.913   0.205   1.826  1.1010  1.2579  1.1645
 2918SOL    HW210205   3.026   0.138   1.751 -0.0466 -0.1174  0.6256
 2919SOL     OW10206   0.297   6.217   1.871  0.2970  0.4762  0.3650
 2919SOL    HW110207   0.246   6.169   1.936  1.4382  0.6979  1.4521
 2919SOL    HW210208   0.259   6.304   1.870 -0.7180  0.0508 -0.4203
 2920SOL     OW10209   6.952   5.574   2.771 -0.3808 -0.4799  0.0077
 2920SOL    HW110210   6.881   5.590   2.833  0.1781  0.5024  0.4392
 2920SOL    HW210211   7.019   5.528   2.823 -0.4433 -0.8348 -0.2241
 2921SOL     OW10212   1.218   1.856   1.587 -0.4791  0.8866 -0.2838
 2921SOL    HW110213   1.131   1.867   1.549 -0.2825  0.5452 -0.8546
 2921SOL    HW210214   1.235   1.762   1.581  1.0522  1.2203 -2.8085
 2922SOL     OW10215   0.743   0.340   5.354 -0.4217  0.2338 -0.4977
 2922SOL    HW110216   0.702   0.293   5.427  2.5067 -0.1854  1.0477
 2922SOL    HW210217   0.733   0.281   5.280 -0.6100 -0.8548  0.3602
 2923SOL     OW10218   6.677   1.398   3.438  0.1293  0.4481  0.2971
 2923SOL    HW110219   6.582   1.384   3.445  0.4256 -0.7060  2.9002
 2923SOL    HW210220   6.701   1.355   3.356 -1.5879  0.9407 -0.5189
 2924SOL     OW10221   4.796   4.482   0.989 -0.1976  0.2900  0.2556
 2924SOL    HW110222   4.711   4.483   1.032  0.0569 -1.1962  0.8528
 2924SOL    HW210223   4.840   4.561   1.022 -0.9113  0.4554  0.8492
 2925SOL     OW10224   5.694   3.196   7.125  0.3294  0.5357 -0.0081
 2925SOL    HW110225   5.649   3.271   7.164 -1.7466 -0.9722  0.6493
 2925SOL    HW210226   5.780   3.196   7.167  0.3911  2.5482 -0.0539
 2926SOL     OW10227   5.286   4.210   3.693  0.6129 -0.1846 -0.6147
 2926SOL    HW110228   5.233   4.286   3.716  1.6670  0.3067  0.2824
 2926SOL    HW210229   5.224   4.137   3.690 -0.1666  0.4359  0.0058
 2927SOL     OW10230   6.691   1.652   3.039  0.5482  0.5485  0.2630
 2927SOL    HW110231   6.694   1.742   3.006 -0.7711  0.3404 -0.4927
 2927SOL    HW210232   6.628   1.608   2.982  1.8351 -1.0970  0.0447
 2928SOL     OW10233   2.158   1.428   0.527 -0.5318  0.2861 -0.0153
 2928SOL    HW110234   2.190   1.437   0.438  1.8898  0.9869  0.8523
 2928SOL    HW210235   2.064   1.410   0.517 -0.3183  0.2537 -2.6656
 2929SOL     OW10236   1.399   1.388   2.872  0.4803  0.1220 -0.0001
 2929SOL    HW110237   1.452   1.309   2.880  3.2830  2.0025  1.6386
 2929SOL    HW210238   1.447   1.445   2.812  0.2701  1.8022  1.3275
 2930SOL     OW10239   3.774   1.074   2.383  0.4849 -0.2617 -0.1699
 2930SOL    HW110240   3.696   1.120   2.416  0.6516 -0.7126  0.8988
 2930SOL    HW210241   3.844   1.101   2.443  0.4932 -2.2409  0.7853
 2931SOL     OW10242   5.511   0.460   4.788 -0.0558 -0.5841  0.0951
 2931SOL    HW110243   5.463   0.540   4.769 -0.0722 -0.6470 -0.1347
 2931SOL    HW210244   5.450   0.407   4.839 -0.7390 -1.2143 -1.2953
 2932SOL     OW10245   7.085   4.115   2.682 -0.4036  0.2458 -0.1846
 2932SOL    HW110246   7.091   4.152   2.593  0.4741 -0.0035 -0.2408
 2932SOL    HW210247   7.029   4.039   2.673  2.3966 -1.8488 -1.2706
 2933SOL     OW10248   0.452   2.512   6.481  0.7510 -0.0267 -0.3484
 2933SOL    HW110249   0.409   2.547   6.560  0.2772  0.0225 -0.6234
 2933SOL    HW210250   0.447   2.417   6.492 -2.5034 -0.1730 -1.9308
 2934SOL     OW10251   6.531   4.585   3.969 -0.4333 -0.2892  0.1408
 2934SOL    HW110252   6.583   4.653   3.927 -0.7514 -0.3369 -0.3360
 2934SOL    HW210253   6.586   4.507   3.965  0.3077  0.1284  1.4916
 2935SOL     OW10254   0.705   4.428   3.675 -0.1785 -0.1332  0.0115
 2935SOL    HW110255   0.704   4.417   3.770 -2.2707  0.0097  0.0394
 2935SOL    HW210256   0.685   4.520   3.661 -1.7462 -0.5285 -0.5666
 2936SOL     OW10257   0.352   5.094   7.137 -0.0998 -0.0929  0.5542
 2936SOL    HW110258   0.406   5.164   7.102  2.6386 -1.3097  2.1000
 2936SOL    HW210259   0.309   5.057   7.059  1.6149  0.6765 -0.8305
 2937SOL     OW10260   1.027   2.114   0.157  0.4087 -0.6604 -0.2046
 2937SOL    HW110261   1.084   2.190   0.168 -0.2270 -0.2816  0.5944
 2937SOL    HW210262   0.971   2.115   0.235  0.5044 -2.0442 -0.1003
 2938SOL     OW10263   3.470   2.116   1.187  0.2049 -0.3486 -0.1476
 2938SOL    HW110264   3.395   2.148   1.136 -0.5914 -1.4619  0.2574
 2938SOL    HW210265   3.537   2.097   1.121  0.1431  0.6888 -0.5201
 2939SOL     OW10266   1.035   3.208   5.296 -0.3657 -0.3769 -0.1302
 2939SOL    HW110267   1.082   3.173   5.372  1.2637  0.3428 -0.7632
 2939SOL    HW210268   1.065   3.155   5.222 -2.5307 -1.5833 -0.2018
 2940SOL     OW10269   2.262   1.745   1.495 -0.0989 -0.2391  0.4143
 2940SOL    HW110270   2.174   1.740   1.458 -0.8931  1.4829  1.8835
 2940SOL    HW210271   2.316   1.784   1.426 -0.5404 -0.9981 -0.3767
 2941SOL     OW10272   0.686   4.764   0.591 -0.1862 -0.1199 -0.0012
 2941SOL    HW110273   0.700   4.731   0.680  1.1351  0.4164  0.0113
 2941SOL    HW210274   0.763   4.735   0.542 -1.0493 -0.6782 -1.0664
 2942SOL     OW10275   2.843   1.338   4.820  0.3453 -0.3402  0.4514
 2942SOL    HW110276   2.840   1.246   4.847  0.4263 -0.2194  0.8918
 2942SOL    HW210277   2.902   1.379   4.884  0.1362  0.0596  0.3888
 2943SOL     OW10278   3.779   3.046   5.548  0.5981 -0.0602  0.4287
 2943SOL    HW110279   3.790   3.075   5.638 -0.5413  0.1875  0.4995
 2943SOL    HW210280   3.736   2.961   5.555 -2.0051  1.1333  0.1113
 2944SOL     OW10281   7.075   0.368   6.660 -0.0831 -0.1384 -0.5854
 2944SOL    HW110282   7.155   0.377   6.609 -0.7794  1.7147 -1.4499
 2944SOL    HW210283   7.085   0.430   6.732 -0.7134  0.1211 -0.7072
 2945SOL     OW10284   2.499   3.699   2.110  0.7464  0.0684 -0.0286
 2945SOL    HW110285   2.410   3.684   2.141  1.9106 -3.4179  2.1749
 2945SOL    HW210286   2.549   3.716   2.190  2.5361 -0.9260 -0.8899
 2946SOL     OW10287   4.913   3.677   3.488  0.4844 -0.2704  0.2981
 2946SOL    HW110288   4.958   3.677   3.573  0.2946  0.9078  0.4113
 2946SOL    HW210289   4.866   3.760   3.486  1.2907  0.1852 -1.3947
 2947SOL     OW10290   2.934   5.553   0.126 -0.5115 -0.2599  0.0646
 2947SOL    HW110291   2.938   5.617   0.197 -0.7190  1.1491 -1.1648
 2947SOL    HW210292   2.842   5.551   0.101 -1.0800 -3.1026  1.8503
 2948SOL     OW10293   3.845   2.887   1.012  0.5233  0.0427  0.0893
 2948SOL    HW110294   3.875   2.861   1.099  0.3155  0.0447  0.1637
 2948SOL    HW210295   3.894   2.966   0.991 -1.3574  1.6588  1.3803
 2949SOL     OW10296   2.538   3.384   4.609  0.1499  0.3028 -0.0531
 2949SOL    HW110297   2.553   3.417   4.520  0.1608 -1.4982 -0.7611
 2949SOL    HW210298   2.622   3.398   4.653 -0.2968  2.6083  0.2067
 2950SOL     OW10299   3.038   3.041   2.234  0.2892  0.5413  0.6492
 2950SOL    HW110300   3.036   3.001   2.147  1.3397 -1.2678  1.4038
 2950SOL    HW210301   2.946   3.061   2.253  0.0160  0.7000 -0.7346
 2951SOL     OW10302   0.354   0.220   5.239 -0.4813 -0.3783  0.0182
 2951SOL    HW110303   0.376   0.138   5.284  0.7401  0.1148  0.3421
 2951SOL    HW210304   0.321   0.192   5.153  0.3714 -1.1905 -0.0523
 2952SOL     OW10305   6.675   6.705   3.537 -0.1293 -0.2321 -0.2011
 2952SOL    HW110306   6.583   6.723   3.517 -0.5705  0.1176  1.9285
 2952SOL    HW210307   6.724   6.769   3.486 -1.1389  0.3541 -0.4566
 2953SOL     OW10308   3.722   4.276   5.279  0.3996  0.1239  0.1107
 2953SOL    HW110309   3.741   4.320   5.197  0.5185 -2.0543 -1.1191
 2953SOL    HW210310   3.627   4.270   5.283  0.4142 -1.5278 -0.9467
 2954SOL     OW10311   6.052   2.516   1.867 -0.0812  0.0714 -0.0610
 2954SOL    HW110312   6.106   2.563   1.803 -0.9406  2.3813  0.7923
 2954SOL    HW210313   6.022   2.438   1.820 -0.3445  1.4418 -2.3741
 2955SOL     OW10314   3.904   4.821   2.624  0.7351 -0.1515  0.0697
 2955SOL    HW110315   3.891   4.916   2.622  2.2141  0.1151  1.3663
 2955SOL    HW210316   3.907   4.796   2.532 -2.6755  0.5357 -0.3780
 2956SOL     OW10317   1.821   6.241   4.293  0.0072 -0.3388 -0.7044
 2956SOL    HW110318   1.910   6.270   4.315 -1.1119  2.8436  0.2333
 2956SOL    HW210319   1.791   6.195   4.371  0.1063  0.5683 -0.1102
 2957SOL     OW10320   2.337   1.306   1.374  0.0506 -0.0679  0.1770
 2957SOL    HW110321   2.284   1.359   1.434 -1.4694  0.8719 -1.8816
 2957SOL    HW210322   2.418   1.357   1.362 -0.3759  0.5992  0.0838
 2958SOL     OW10323   2.942   6.523   5.940  0.2364  0.0993  0.5910
 2958SOL    HW110324   2.876   6.462   5.973  0.6117 -0.6971 -0.0781
 2958SOL    HW210325   2.891   6.591   5.896 -0.1638 -0.1270  0.6912
 2959SOL     OW10326   3.095   4.230   6.714  0.0456  0.4625  1.0058
 2959SOL    HW110327   3.120   4.169   6.783 -1.0298 -0.4103  0.6614
 2959SOL    HW210328   3.153   4.306   6.726 -0.7191  0.7581  3.4374
 2960SOL     OW10329   2.169   5.097   5.573  0.2389  0.5158  0.0171
 2960SOL    HW110330   2.101   5.030   5.581  1.1606 -0.5592 -0.8490
 2960SOL    HW210331   2.227   5.081   5.647  1.1748 -0.5178 -0.9077
 2961SOL     OW10332   2.688   2.662   3.449 -0.1079 -0.0306  0.1995
 2961SOL    HW110333   2.705   2.707   3.532 -0.1973 -1.4505  1.0295
 2961SOL    HW210334   2.593   2.651   3.447 -0.1631  0.4785 -0.3741
 2962SOL     OW10335   3.353   3.190   5.885 -0.2002 -0.2331  0.1311
 2962SOL    HW110336   3.440   3.165   5.919 -0.1226 -1.9132 -1.1589
 2962SOL    HW210337   3.353   3.159   5.794 -1.2670  1.9891 -0.6945
 2963SOL     OW10338   3.770   2.782   5.839 -0.4887 -0.3653 -0.0100
 2963SOL    HW110339   3.856   2.743   5.858 -0.8367 -1.0877  0.1146
 2963SOL    HW210340   3.762   2.776   5.743 -0.6493 -0.8416  0.0307
 2964SOL     OW10341   2.305   5.281   4.610  0.0000 -0.1720 -0.5857
 2964SOL    HW110342   2.328   5.370   4.583  3.6152 -0.4819  0.9054
 2964SOL    HW210343   2.383   5.228   4.589 -0.6970 -2.2741  1.6114
 2965SOL     OW10344   4.221   4.255   2.366  0.0575 -0.1400 -0.2639
 2965SOL    HW110345   4.230   4.176   2.312 -0.2929  0.8875 -1.8686
 2965SOL    HW210346   4.166   4.313   2.315  0.4464  1.2324  0.8265
 2966SOL     OW10347   5.667   0.907   6.251  0.6038 -0.1533  0.1443
 2966SOL    HW110348   5.685   0.872   6.339  0.0322  0.4999  0.5281
 2966SOL    HW210349   5.753   0.918   6.212  0.8545 -0.7394  0.5074
 2967SOL     OW10350   2.062   2.279   6.199  0.5923  0.0279  0.8389
 2967SOL    HW110351   2.125   2.208   6.213  0.7150  0.0993  0.6621
 2967SOL    HW210352   1.985   2.236   6.162  1.0171  0.1044 -0.1699
 2968SOL     OW10353   7.035   1.322   1.411  0.3837  0.2945 -0.3491
 2968SOL    HW110354   6.996   1.325   1.498  0.3665  0.6349 -0.3681
 2968SOL    HW210355   6.973   1.369   1.355  1.5273  2.1811 -0.1034
 2969SOL     OW10356   4.993   4.750   2.752  0.3915  0.3086  0.3846
 2969SOL    HW110357   4.942   4.766   2.831  0.0512 -1.1839  0.5064
 2969SOL    HW210358   4.929   4.742   2.682  0.7571  2.9320 -0.3548
 2970SOL     OW10359   2.375   5.449   3.975  0.3401 -0.1689  0.6640
 2970SOL    HW110360   2.455   5.467   4.023  1.5837  0.2046 -1.4214
 2970SOL    HW210361   2.345   5.365   4.009  1.5542 -0.2557  1.5772
 2971SOL     OW10362   5.269   0.511   0.927  0.0084 -0.3077  0.5777
 2971SOL    HW110363   5.222   0.524   0.845 -0.1039 -0.6714  0.5808
 2971SOL    HW210364   5.335   0.580   0.929 -1.0265  0.6933  0.9397
 2972SOL     OW10365   3.379   0.887   3.072 -0.1144  0.1260  0.3699
 2972SOL    HW110366   3.401   0.795   3.086  2.4994  0.6310  0.0998
 2972SOL    HW210367   3.396   0.902   2.979 -0.4982  0.8985  0.4158
 2973SOL     OW10368   4.316   2.794   5.652  0.1221 -0.1002 -0.4220
 2973SOL    HW110369   4.341   2.815   5.562  0.4605 -0.7373 -0.4869
 2973SOL    HW210370   4.356   2.708   5.668 -0.2512 -0.1619  0.2077
 2974SOL     OW10371   1.962   5.223   3.355 -0.4522 -0.2642 -0.3732
 2974SOL    HW110372   1.998   5.141   3.388  1.9053  0.7412 -0.1915
 2974SOL    HW210373   1.943   5.275   3.433  1.0590  0.4926 -0.4629
 2975SOL     OW10374   3.583   1.839   0.518 -0.3334  0.8489  0.1183
 2975SOL    HW110375   3.670   1.812   0.488 -0.7286 -1.4384  0.8248
 2975SOL    HW210376   3.598   1.875   0.606 -0.0779  0.7421  0.1177
 2976SOL     OW10377   0.847   4.827   5.899 -0.1255  0.5908  0.0393
 2976SOL    HW110378   0.796   4.881   5.958 -0.0642 -0.1864  0.8181
 2976SOL    HW210379   0.935   4.827   5.936 -0.4541 -1.2567  0.9164
 2977SOL     OW10380   2.197   7.142   5.478  0.0006  0.1501 -0.3845
 2977SOL    HW110381   2.252   7.213   5.512  0.2138  0.8605 -2.0976
 2977SOL    HW210382   2.149   7.183   5.406 -2.9622 -0.3863  1.1524
 2978SOL     OW10383   7.065   6.125   0.698  0.5195 -0.4078 -0.2489
 2978SOL    HW110384   7.101   6.056   0.754  0.7216 -1.6008 -1.7899
 2978SOL    HW210385   7.084   6.206   0.745  1.1646 -1.3253  1.1364
 2979SOL     OW10386   2.299   0.201   6.864 -0.1288  0.3494  0.1887
 2979SOL    HW110387   2.295   0.151   6.783 -0.9583  1.3076 -0.3764
 2979SOL    HW210388   2.249   0.149   6.927  1.1190 -0.7515  0.3114
 2980SOL     OW10389   2.464   6.923   0.891  0.0181 -0.7345 -0.2590
 2980SOL    HW110390   2.486   6.831   0.900  0.2033 -0.8400 -1.6153
 2980SOL    HW210391   2.431   6.948   0.978  0.9534 -1.7879  0.4390
 2981SOL     OW10392   4.056   5.518   0.542  0.2212  0.2414 -0.1699
 2981SOL    HW110393   4.142   5.482   0.565 -0.1419 -1.5068 -1.3592
 2981SOL    HW210394   4.009   5.525   0.625  1.0456  0.0006  0.3322
 2982SOL     OW10395   4.312   6.427   5.462  0.3477 -0.1947 -0.2191
 2982SOL    HW110396   4.288   6.473   5.542  1.3038 -1.1190  0.6314
 2982SOL    HW210397   4.228   6.406   5.421 -0.2593 -1.2579  1.4551
 2983SOL     OW10398   1.703   6.811   0.743  0.3354  0.2081 -0.0500
 2983SOL    HW110399   1.631   6.779   0.798 -0.1331  0.9981 -0.1791
 2983SOL    HW210400   1.731   6.892   0.786  2.1811 -0.8396  0.8461
 2984SOL     OW10401   6.600   2.873   3.979 -0.5948 -0.2719 -0.0184
 2984SOL    HW110402   6.543   2.864   3.902 -0.7687 -1.2104  0.2044
 2984SOL    HW210403   6.540   2.863   4.054 -0.4204  0.5868  0.2508
 2985SOL     OW10404   4.286   1.131   5.456 -0.2952 -0.3849 -0.0971
 2985SOL    HW110405   4.277   1.041   5.487 -0.2921  0.5782  3.0739
 2985SOL    HW210406   4.221   1.180   5.506 -0.5505  1.3724 -2.0044
 2986SOL     OW10407   0.192   3.151   4.618  0.7847 -0.0875 -0.2284
 2986SOL    HW110408   0.225   3.233   4.656 -2.6317  1.4328 -0.1862
 2986SOL    HW210409   0.269   3.112   4.576  2.6085  3.0680 -0.1727
 2987SOL     OW10410   2.851   6.257   0.980  0.0547  0.3759  0.5491
 2987SOL    HW110411   2.779   6.306   1.019  0.0784  0.7621  0.1134
 2987SOL    HW210412   2.809   6.177   0.945 -0.2259  0.7661 -0.0206
 2988SOL     OW10413   6.541   5.121   6.251  0.2545 -0.0531 -0.4633
 2988SOL    HW110414   6.446   5.121   6.265 -0.1448 -1.1973 -2.6776
 2988SOL    HW210415   6.573   5.052   6.309 -0.7385 -1.8236 -1.9190
 2989SOL     OW10416   5.289   5.846   1.653  0.4944  0.0940 -0.2496
 2989SOL    HW110417   5.222   5.839   1.720  0.4998  0.6755 -0.1739
 2989SOL    HW210418   5.249   5.809   1.575  1.3585 -2.9751  0.6293
 2990SOL     OW10419   6.584   0.756   3.416  0.0705  0.5881 -0.3894
 2990SOL    HW110420   6.527   0.812   3.364 -0.3779  3.5149  2.9198
 2990SOL    HW210421   6.651   0.814   3.451  0.6159 -1.2627  1.9075
 2991SOL     OW10422   3.102   3.876   4.828 -0.4210 -0.4579  0.1125
 2991SOL    HW110423   3.031   3.840   4.882 -0.3027 -0.2948  0.3742
 2991SOL    HW210424   3.060   3.892   4.743 -0.7927 -0.0133  0.3752
 2992SOL     OW10425   4.961   4.488   0.735  0.1741  0.3212  0.3053
 2992SOL    HW110426   4.904   4.470   0.810 -1.1434  1.7778 -0.2988
 2992SOL    HW210427   4.906   4.474   0.658  0.5989  1.7389 -0.2953
 2993SOL     OW10428   6.690   4.753   3.839 -0.1529 -1.0022  0.0026
 2993SOL    HW110429   6.776   4.713   3.846  0.7859  0.6858 -1.1401
 2993SOL    HW210430   6.707   4.844   3.812 -2.2804 -0.6288 -0.3208
 2994SOL     OW10431   1.025   6.257   4.733 -0.2367 -0.2848  0.1530
 2994SOL    HW110432   1.010   6.172   4.690 -1.9789 -0.4827  1.0697
 2994SOL    HW210433   0.978   6.250   4.816 -1.3799  1.9813 -0.2421
 2995SOL     OW10434   6.069   2.333   3.324 -0.0610 -1.0093 -0.1040
 2995SOL    HW110435   6.155   2.369   3.346  0.0116 -2.2101  1.7873
 2995SOL    HW210436   6.013   2.410   3.310  1.3296 -0.2086 -1.6200
 2996SOL     OW10437   0.388   1.323   1.776  0.4075 -0.1613 -0.5059
 2996SOL    HW110438   0.295   1.314   1.755  0.2845 -0.3712  0.1157
 2996SOL    HW210439   0.410   1.412   1.750  0.2307 -0.3616 -1.3887
 2997SOL     OW10440   3.271   0.552   6.039 -0.2580  0.2541  0.1823
 2997SOL    HW110441   3.215   0.485   6.000 -0.6136  1.0189 -0.6732
 2997SOL    HW210442   3.225   0.634   6.022  0.3862  0.7603  0.8136
 2998SOL     OW10443   3.631   3.391   1.735 -0.0573 -0.5967  0.5405
 2998SOL    HW110444   3.595   3.399   1.646 -0.1437 -0.2752  0.6041
 2998SOL    HW210445   3.572   3.329   1.778 -0.4636 -0.1755  0.6026
 2999SOL     OW10446   0.664   5.161   4.782 -0.3766  0.4374  0.0760
 2999SOL    HW110447   0.678   5.111   4.701  0.4209  2.2801 -1.0010
 2999SOL    HW210448   0.594   5.222   4.760  0.4755  1.5703  0.4503
 3000SOL     OW10449   6.970   0.171   5.880  0.1810 -0.2910  0.5920
 3000SOL    HW110450   7.045   0.216   5.840 -0.5231 -0.1036 -0.5595
 3000SOL    HW210451   7.004   0.085   5.903  0.2178 -1.0321 -1.9517
 3001SOL     OW10452   3.985   6.901   4.788  0.2137  0.0056 -0.0061
 3001SOL    HW110453   3.905   6.945   4.759  0.4024  0.3372 -0.0368
 3001SOL    HW210454   4.023   6.961   4.852  0.8083  0.2010 -0.5185
 3002SOL     OW10455   6.342   6.888   2.730 -0.2547  0.1976 -0.3316
 3002SOL    HW110456   6.413   6.939   2.769 -0.8461  0.6340  0.1798
 3002SOL    HW210457   6.264   6.941   2.743 -0.8425 -0.7242 -0.0120
 3003SOL     OW10458   4.950   1.044   3.126  0.1037 -0.2857 -0.3692
 3003SOL    HW110459   4.864   1.051   3.167  0.4930  0.8695  0.2773
 3003SOL    HW210460   5.011   1.039   3.199  0.4642 -4.2644 -0.7045
 3004SOL     OW10461   1.488   3.604   0.501  0.0243 -0.0546  0.3491
 3004SOL    HW110462   1.475   3.691   0.463  1.2224  0.6804  1.5184
 3004SOL    HW210463   1.572   3.575   0.465 -0.7691 -1.1552 -0.7226
 3005SOL     OW10464   5.592   2.566   1.714 -0.1493  0.2785  0.0782
 3005SOL    HW110465   5.622   2.478   1.692 -0.5813  0.0497  0.3974
 3005SOL    HW210466   5.670   2.609   1.750 -0.6798 -1.0384  3.0798
 3006SOL     OW10467   5.648   5.647   3.935  0.3480  0.1655  0.3260
 3006SOL    HW110468   5.648   5.742   3.941  0.9131  0.3535 -1.7766
 3006SOL    HW210469   5.741   5.623   3.934  0.2139 -0.5020  1.5992
 3007SOL     OW10470   5.850   3.622   0.504 -0.2255 -0.4688  0.4489
 3007SOL    HW110471   5.881   3.592   0.590  0.3037 -2.7604 -0.4698
 3007SOL    HW210472   5.755   3.606   0.507 -0.4933  1.1076  1.1956
 3008SOL     OW10473   3.124   4.852   6.533  0.0215  0.2343 -0.0182
 3008SOL    HW110474   3.205   4.804   6.517 -1.2240 -1.7607 -0.7710
 3008SOL    HW210475   3.106   4.837   6.626  1.1273  1.7620  0.4747
 3009SOL     OW10476   0.185   3.351   2.930 -0.0406  0.3764  0.3117
 3009SOL    HW110477   0.181   3.443   2.958 -0.2306  0.7727 -0.9517
 3009SOL    HW210478   0.096   3.319   2.938  0.1679  0.0429  1.5196
 3010SOL     OW10479   3.317   5.016   3.649  0.1987 -0.6649 -0.3712
 3010SOL    HW110480   3.347   5.103   3.677 -1.6104  0.7328 -2.4764
 3010SOL    HW210481   3.348   5.007   3.559 -0.2203 -1.9126 -0.4117
 3011SOL     OW10482   1.117   0.179   7.108 -0.0207 -0.5143 -0.6926
 3011SOL    HW110483   1.088   0.241   7.041  0.2048 -0.2256 -0.5217
 3011SOL    HW210484   1.162   0.111   7.059 -0.9081 -0.9343 -0.9598
 3012SOL     OW10485   6.774   6.973   1.901  0.1985  0.3862  0.0500
 3012SOL    HW110486   6.864   6.941   1.895  0.7320  1.3248  2.0910
 3012SOL    HW210487   6.731   6.911   1.959  0.1877  1.1939  0.9275
 3013SOL     OW10488   0.833   2.685   1.427 -0.0993 -0.3347  0.0012
 3013SOL    HW110489   0.916   2.694   1.476 -1.6773  1.8124  2.5705
 3013SOL    HW210490   0.859   2.686   1.335  2.8864 -2.0957  0.6965
 3014SOL     OW10491   3.300   4.722   5.164  0.0754  0.2180 -0.6550
 3014SOL    HW110492   3.266   4.755   5.247  0.2365  0.1114 -0.5455
 3014SOL    HW210493   3.268   4.783   5.098  0.5684  0.7269 -0.4325
 3015SOL     OW10494   4.997   4.499   4.121 -0.7319  0.0142 -0.3333
 3015SOL    HW110495   5.049   4.529   4.196 -1.2306 -0.4671  0.2117
 3015SOL    HW210496   5.029   4.552   4.048 -0.1690  0.4253  0.1943
 3016SOL     OW10497   5.961   5.150   0.834 -0.5686 -0.5667 -0.1304
 3016SOL    HW110498   5.881   5.166   0.883  0.1049  0.2725  0.7162
 3016SOL    HW210499   5.938   5.167   0.743 -1.5725 -1.1901 -0.0023
 3017SOL     OW10500   1.160   4.366   4.042 -0.3167  0.1513 -0.2114
 3017SOL    HW110501   1.224   4.313   4.089 -1.3906 -0.8647  0.1519
 3017SOL    HW210502   1.176   4.456   4.072 -0.1428 -0.3085  1.1239
 3018SOL     OW10503   3.077   5.036   5.365  0.0842  0.0339 -0.1119
 3018SOL    HW110504   3.011   5.006   5.428  1.0068 -0.1070  0.8353
 3018SOL    HW210505   3.063   4.982   5.287  0.3347 -1.4094  0.7955
 3019SOL     OW10506   1.396   3.093   1.130 -0.0386 -0.3710 -0.2540
 3019SOL    HW110507   1.433   3.098   1.218  1.3182 -2.7840 -0.5723
 3019SOL    HW210508   1.303   3.080   1.143  0.0483  0.0427  0.8131
 3020SOL     OW10509   0.642   2.181   2.475 -0.0519 -0.0890 -0.2616
 3020SOL    HW110510   0.621   2.170   2.383 -0.0375 -0.1505 -0.2571
 3020SOL    HW210511   0.560   2.208   2.516  0.1026  0.6731 -0.4236
 3021SOL     OW10512   3.911   7.139   6.799  0.0188 -0.5864  0.1863
 3021SOL    HW110513   3.983   7.101   6.850  0.9767 -1.4955 -1.7373
 3021SOL    HW210514   3.954   7.181   6.725 -1.4331 -1.4461 -1.2091
 3022SOL     OW10515   1.062   0.278   6.825 -0.4174  0.1614  0.0933
 3022SOL    HW110516   1.102   0.358   6.858 -0.1929  0.0177  0.1687
 3022SOL    HW210517   1.018   0.304   6.744 -0.9144  0.5027  0.4676
 3023SOL     OW10518   6.681   5.097   3.219 -0.3247 -0.4172 -0.4557
 3023SOL    HW110519   6.714   5.032   3.157 -2.4245 -1.5450 -0.4925
 3023SOL    HW210520   6.694   5.056   3.305 -0.3142 -0.2467 -0.3770
 3024SOL     OW10521   7.070   6.092   4.816 -0.1447 -0.2779  0.0721
 3024SOL    HW110522   7.049   6.103   4.723 -1.1635  0.4851  0.3718
 3024SOL    HW210523   6.995   6.045   4.852 -0.5468  0.8732  0.8105
 3025SOL     OW10524   0.065   3.539   4.448  0.2183 -0.0406 -0.2469
 3025SOL    HW110525   0.072   3.633   4.427 -0.0265  0.2915  1.0799
 3025SOL    HW210526   0.003   3.536   4.520 -0.9031 -1.3815 -1.2257
 3026SOL     OW10527   2.604   3.307   2.503  0.2701  0.0401  0.3264
 3026SOL    HW110528   2.676   3.362   2.533  0.4969  0.0513 -0.2224
 3026SOL    HW210529   2.614   3.305   2.408  0.1897 -0.8322  0.3253
 3027SOL     OW10530   5.188   5.083   1.243  0.2035  0.1958 -0.3485
 3027SOL    HW110531   5.264   5.026   1.240  1.1745  1.2987  1.4337
 3027SOL    HW210532   5.193   5.125   1.329 -2.2182  0.5879 -0.3230
 3028SOL     OW10533   5.792   6.895   3.238  0.4462 -0.3633  0.4982
 3028SOL    HW110534   5.769   6.831   3.171 -0.0559  0.4202 -0.0934
 3028SOL    HW210535   5.875   6.864   3.274  1.1352 -0.3803 -1.0390
 3029SOL     OW10536   2.009   6.774   7.020 -0.7662  0.0002 -0.1976
 3029SOL    HW110537   2.014   6.763   6.926  0.6662  0.7497 -0.2486
 3029SOL    HW210538   1.930   6.825   7.035 -1.0315 -0.1809 -0.9855
 3030SOL     OW10539   0.555   6.828   6.816 -0.1650 -0.4349  0.5948
 3030SOL    HW110540   0.526   6.744   6.781  2.4028 -1.3912  0.5235
 3030SOL    HW210541   0.649   6.816   6.832  0.0997  2.1410  1.4475
 3031SOL     OW10542   6.866   6.706   6.347 -0.0134 -0.5621 -0.4711
 3031SOL    HW110543   6.871   6.727   6.440 -0.3641 -1.1272 -0.3155
 3031SOL    HW210544   6.943   6.651   6.331  0.3508 -0.0044 -0.6443
 3032SOL     OW10545   2.153   6.306   6.261  0.3413 -0.8490  0.1060
 3032SOL    HW110546   2.213   6.369   6.223  1.1218 -1.6610 -0.0294
 3032SOL    HW210547   2.121   6.254   6.187  0.5265 -1.3041  0.3401
 3033SOL     OW10548   1.862   4.678   1.054  0.4552  0.1426 -0.5589
 3033SOL    HW110549   1.827   4.749   1.001  0.2936 -0.5751 -1.4335
 3033SOL    HW210550   1.956   4.680   1.039  0.4226  0.0157 -0.7869
 3034SOL     OW10551   1.328   2.039   1.762  0.0412 -0.4982 -0.8022
 3034SOL    HW110552   1.423   2.024   1.758  0.0770 -0.3742 -0.4346
 3034SOL    HW210553   1.294   1.996   1.684  0.6751  1.5427 -2.2819
 3035SOL     OW10554   1.607   0.975   3.960  0.2799 -0.1224 -0.2650
 3035SOL    HW110555   1.700   0.966   3.937  0.2438  1.6682 -1.3308
 3035SOL    HW210556   1.608   0.989   4.055  0.9363 -1.6882 -0.0058
 3036SOL     OW10557   2.292   6.785   0.701  0.2496 -0.0401 -0.0025
 3036SOL    HW110558   2.342   6.723   0.648 -1.4656 -0.9569 -0.6144
 3036SOL    HW210559   2.290   6.745   0.788  2.1996  0.9709  0.5625
 3037SOL     OW10560   3.353   6.331   2.987 -0.0979  0.2702  0.0017
 3037SOL    HW110561   3.347   6.408   2.931 -1.1733 -0.3751 -0.7962
 3037SOL    HW210562   3.263   6.301   2.997  0.2612 -0.6376  0.6543
 3038SOL     OW10563   0.731   2.305   6.835  0.3279 -0.3368  0.0797
 3038SOL    HW110564   0.638   2.289   6.817  0.2119 -0.3328  0.6451
 3038SOL    HW210565   0.753   2.242   6.904  0.3375  0.6995  1.0553
 3039SOL     OW10566   2.114   0.881   5.955 -0.5545  0.3032 -0.6130
 3039SOL    HW110567   2.157   0.924   5.881 -0.5379 -0.0948 -0.8374
 3039SOL    HW210568   2.182   0.871   6.021 -0.4213  0.1229 -0.7759
 3040SOL     OW10569   2.472   2.553   5.752  0.7553 -0.0166 -0.2599
 3040SOL    HW110570   2.394   2.537   5.806  1.1495 -0.7896  0.0928
 3040SOL    HW210571   2.501   2.466   5.726  1.8056  0.2357  0.0414
 3041SOL     OW10572   6.768   5.538   1.922 -0.7392 -0.5224 -0.0968
 3041SOL    HW110573   6.740   5.596   1.993 -1.0607  1.2422 -1.5991
 3041SOL    HW210574   6.858   5.564   1.905 -0.1817 -1.9350  0.5947
 3042SOL     OW10575   2.399   5.651   6.904  0.3994  0.0154 -0.7661
 3042SOL    HW110576   2.380   5.608   6.988  2.1009  0.1748 -0.2619
 3042SOL    HW210577   2.329   5.621   6.846 -0.4511 -0.6216  0.5210
 3043SOL     OW10578   3.042   5.379   4.366 -0.2605  0.0200  0.3437
 3043SOL    HW110579   3.067   5.306   4.423 -0.6200 -0.4259 -0.0599
 3043SOL    HW210580   3.059   5.457   4.419 -0.8024 -0.3947  1.1511
 3044SOL     OW10581   0.416   0.820   4.070 -0.2976  0.1618 -0.3474
 3044SOL    HW110582   0.460   0.816   4.154 -2.0172  2.1894  0.7480
 3044SOL    HW210583   0.363   0.740   4.067  0.6176 -0.4677 -0.0232
 3045SOL     OW10584   3.907   0.728   6.578  0.2119  0.4157 -0.3080
 3045SOL    HW110585   3.881   0.704   6.667  0.1365 -0.1860 -0.4925
 3045SOL    HW210586   3.994   0.690   6.567 -0.9029 -1.9742 -1.4688
 3046SOL     OW10587   5.499   2.251   5.450  0.6517  0.5501  0.5146
 3046SOL    HW110588   5.425   2.259   5.390  1.1807  1.6748 -0.0346
 3046SOL    HW210589   5.568   2.303   5.409  2.0041 -1.0754  0.6277
 3047SOL     OW10590   4.271   2.510   0.335  0.1807  0.2633  0.1656
 3047SOL    HW110591   4.197   2.567   0.356 -0.4208 -0.7404  0.8503
 3047SOL    HW210592   4.251   2.474   0.248 -0.1870 -0.0761  0.3890
 3048SOL     OW10593   3.423   1.158   6.338  0.5120  0.2051  0.3626
 3048SOL    HW110594   3.390   1.235   6.383  1.6750  1.5956 -1.0571
 3048SOL    HW210595   3.411   1.176   6.245  0.1116 -1.6723 -0.0033
 3049SOL     OW10596   6.415   0.819   4.150 -0.2667 -0.2081  0.3820
 3049SOL    HW110597   6.391   0.872   4.074  0.3953 -0.5141 -0.0527
 3049SOL    HW210598   6.461   0.744   4.113  0.5427 -0.0902  1.1178
 3050SOL     OW10599   2.291   0.505   2.055  0.1426  0.2152  0.0292
 3050SOL    HW110600   2.385   0.513   2.040  0.2359 -0.5930  0.1825
 3050SOL    HW210601   2.256   0.470   1.973  0.0747 -0.1745  0.2230
 3051SOL     OW10602   5.678   5.180   5.588 -0.2191 -0.4317  0.2257
 3051SOL    HW110603   5.710   5.132   5.512  2.3447 -0.3974  1.1622
 3051SOL    HW210604   5.629   5.253   5.552 -0.2641 -1.1860 -1.3350
 3052SOL     OW10605   5.451   3.871   5.078 -0.0134  0.0916  0.1701
 3052SOL    HW110606   5.378   3.931   5.092 -0.4163 -0.3430 -0.0284
 3052SOL    HW210607   5.522   3.926   5.046 -0.0405  0.6213  0.9921
 3053SOL     OW10608   1.146   2.730   0.767  0.3954  0.3524  0.4050
 3053SOL    HW110609   1.166   2.683   0.848 -0.5677 -2.4106 -0.8551
 3053SOL    HW210610   1.221   2.713   0.710 -0.9368 -1.6962 -0.8504
 3054SOL     OW10611   7.008   4.884   3.617  0.0843 -0.2589  0.1608
 3054SOL    HW110612   6.924   4.930   3.623 -0.0424 -0.6408  1.5869
 3054SOL    HW210613   7.074   4.953   3.628  0.0992  0.4047 -3.0325
 3055SOL     OW10614   2.186   5.112   4.842 -0.2331 -0.3606  0.5318
 3055SOL    HW110615   2.106   5.157   4.814  0.0213 -0.0326  0.3162
 3055SOL    HW210616   2.248   5.128   4.771  0.1638 -0.2250  0.9033
 3056SOL     OW10617   1.398   2.511   4.415 -0.1782 -0.0636  0.1112
 3056SOL    HW110618   1.389   2.482   4.505  0.7601  0.3102  0.3435
 3056SOL    HW210619   1.323   2.567   4.399  0.2312  0.7610  1.0272
 3057SOL     OW10620   2.846   1.137   0.897 -0.0822  0.0843 -0.1585
 3057SOL    HW110621   2.839   1.210   0.835 -0.7064  0.6248  0.5295
 3057SOL    HW210622   2.934   1.147   0.935 -0.4857  1.0203  0.5722
 3058SOL     OW10623   6.986   3.574   5.198  0.2598  0.2305 -0.5314
 3058SOL    HW110624   7.054   3.565   5.131 -0.3275  0.7064 -1.2073
 3058SOL    HW210625   6.906   3.545   5.154  0.0914 -0.8392  0.4115
 3059SOL     OW10626   1.160   5.774   2.024 -0.0823  0.0105  0.1928
 3059SOL    HW110627   1.164   5.748   2.116  0.2142  0.8010  0.4066
 3059SOL    HW210628   1.252   5.789   1.999 -0.3024  2.0095  0.4243
 3060SOL     OW10629   4.016   2.173   2.143 -0.3878 -0.0038  0.3611
 3060SOL    HW110630   4.073   2.250   2.146  0.3870 -0.5631  0.5489
 3060SOL    HW210631   4.013   2.143   2.234  1.1994 -1.4982 -0.0132
 3061SOL     OW10632   1.605   1.201   0.576  0.1637 -0.3713  0.2609
 3061SOL    HW110633   1.557   1.275   0.538  0.1710  0.6762  2.1913
 3061SOL    HW210634   1.673   1.182   0.511  0.3100  1.4802 -0.2024
 3062SOL     OW10635   5.548   1.650   0.332 -0.0482 -0.3254  0.0892
 3062SOL    HW110636   5.617   1.713   0.356  1.0182 -1.9328  1.4462
 3062SOL    HW210637   5.475   1.672   0.391  0.0643  0.0656  0.0880
 3063SOL     OW10638   4.873   0.194   5.485 -0.0426  0.0029  0.3808
 3063SOL    HW110639   4.962   0.177   5.515  0.3683 -1.3435 -1.4225
 3063SOL    HW210640   4.819   0.183   5.564  1.2459 -0.3593  1.2532
 3064SOL     OW10641   1.685   5.820   5.759 -0.1050 -0.2553 -0.3439
 3064SOL    HW110642   1.747   5.828   5.831  0.2877 -2.0224 -0.4358
 3064SOL    HW210643   1.604   5.788   5.800 -1.1964  2.4912 -0.1481
 3065SOL     OW10644   5.102   3.378   4.403 -0.2921  0.1168  0.1774
 3065SOL    HW110645   5.036   3.412   4.464  1.1827  1.3008  1.1744
 3065SOL    HW210646   5.101   3.283   4.417 -1.0775  0.2171  0.8782
 3066SOL     OW10647   4.019   4.222   5.265 -0.5242  0.0910  0.4586
 3066SOL    HW110648   4.040   4.146   5.320  1.1951  0.6773  0.6812
 3066SOL    HW210649   3.943   4.262   5.308  0.7468  0.5085  2.4376
 3067SOL     OW10650   4.710   4.299   5.583 -0.2267  0.7465 -0.6956
 3067SOL    HW110651   4.700   4.232   5.516  2.9935  0.5062 -1.0854
 3067SOL    HW210652   4.779   4.356   5.551  0.4526  1.4493  1.7515
 3068SOL     OW10653   6.965   2.313   6.370 -0.8732 -0.1132 -0.0073
 3068SOL    HW110654   6.905   2.280   6.437  0.6712 -0.4995  1.2651
 3068SOL    HW210655   7.007   2.389   6.411  0.4840 -0.6722 -0.2876
 3069SOL     OW10656   6.633   2.931   0.802  0.3367 -0.0574  0.1295
 3069SOL    HW110657   6.596   3.014   0.772  1.4390  1.4226  2.5852
 3069SOL    HW210658   6.570   2.897   0.865  0.1981 -0.7816 -0.3853
 3070SOL     OW10659   4.311   3.865   5.002 -0.5095 -0.1754 -0.1045
 3070SOL    HW110660   4.279   3.790   4.951 -4.5623  0.7362  0.7900
 3070SOL    HW210661   4.279   3.849   5.091  2.0258  0.7733  1.0711
 3071SOL     OW10662   6.214   3.958   1.665  0.7197 -0.7890 -0.4956
 3071SOL    HW110663   6.268   4.005   1.601 -0.5444 -0.4693 -1.3717
 3071SOL    HW210664   6.128   4.000   1.659  0.6583 -0.4942  1.7162
 3072SOL     OW10665   5.851   0.132   5.568  0.3000  0.0795 -0.3110
 3072SOL    HW110666   5.945   0.148   5.567  0.2053  0.7019  0.1268
 3072SOL    HW210667   5.841   0.054   5.623  0.5814 -0.1856 -0.6291
 3073SOL     OW10668   2.332   1.127   2.906 -0.2018 -0.1631  0.2689
 3073SOL    HW110669   2.418   1.085   2.912  0.5689  1.0013 -1.7084
 3073SOL    HW210670   2.270   1.054   2.904  0.7979 -1.0521  0.8619
 3074SOL     OW10671   1.876   3.779   0.456 -0.2322  0.0721  0.0020
 3074SOL    HW110672   1.878   3.822   0.371 -1.1042 -0.6823 -0.4153
 3074SOL    HW210673   1.929   3.835   0.513  1.0467  0.1674 -1.2228
 3075SOL     OW10674   0.372   5.486   2.973  0.2741 -0.7699  0.2267
 3075SOL    HW110675   0.410   5.560   3.021 -1.8231  0.3490  0.2796
 3075SOL    HW210676   0.328   5.434   3.040  1.1557 -1.7290  0.0905
 3076SOL     OW10677   1.341   6.535   4.260  0.1107  0.1691 -0.5100
 3076SOL    HW110678   1.345   6.452   4.212 -0.8861 -0.3568  0.2633
 3076SOL    HW210679   1.416   6.533   4.319  0.5713  0.2137 -1.0812
 3077SOL     OW10680   0.780   2.382   3.557  0.5315 -0.5416  0.6950
 3077SOL    HW110681   0.756   2.448   3.492  0.8206 -0.0701  1.0535
 3077SOL    HW210682   0.697   2.341   3.581  0.4714 -0.9577 -0.2176
 3078SOL     OW10683   1.284   4.067   3.923  0.0151  0.0371 -0.5649
 3078SOL    HW110684   1.259   4.063   3.831  1.6023 -1.4771 -0.9815
 3078SOL    HW210685   1.362   4.122   3.924  0.3189 -0.3968 -0.2052
 3079SOL     OW10686   1.963   3.108   6.273  0.0675  0.3196  0.0951
 3079SOL    HW110687   1.901   3.087   6.203  1.4084  0.7194 -1.2716
 3079SOL    HW210688   1.908   3.120   6.350 -1.7850  2.5253 -1.4258
 3080SOL     OW10689   1.883   3.028   5.739 -0.1774  0.2790  0.0236
 3080SOL    HW110690   1.943   2.953   5.738  1.0015  1.0921  2.5524
 3080SOL    HW210691   1.819   3.008   5.670  0.8734 -2.3755 -0.3010
 3081SOL     OW10692   1.382   3.297   2.879  0.3287  0.0924  0.1593
 3081SOL    HW110693   1.342   3.226   2.929  0.3019  1.4297  2.1716
 3081SOL    HW210694   1.452   3.329   2.936  0.1028  1.8969 -0.5081
 3082SOL     OW10695   6.065   1.402   7.032  0.0400 -0.2186  0.0983
 3082SOL    HW110696   6.122   1.355   6.972 -1.2370 -0.5718 -0.9060
 3082SOL    HW210697   6.111   1.485   7.050  0.0271  0.3547 -2.2096
 3083SOL     OW10698   0.997   1.204   0.784  0.0354  0.0948 -0.0837
 3083SOL    HW110699   0.920   1.210   0.840 -1.1213 -1.6074 -1.3751
 3083SOL    HW210700   1.071   1.219   0.843 -1.2041 -0.0461  1.5705
 3084SOL     OW10701   4.994   4.183   0.433  0.0936 -0.0189 -0.3204
 3084SOL    HW110702   4.994   4.275   0.409 -1.7451  0.2279  0.5004
 3084SOL    HW210703   4.954   4.138   0.359 -0.9847  0.1249  0.1628
 3085SOL     OW10704   2.418   2.555   4.074  0.4292  0.5829  0.5699
 3085SOL    HW110705   2.447   2.573   4.164  0.0002  1.4238  0.5509
 3085SOL    HW210706   2.406   2.460   4.071  0.7548  0.5128  1.3074
 3086SOL     OW10707   1.766   5.280   6.921  0.0445 -0.0449  0.9842
 3086SOL    HW110708   1.715   5.240   6.851  0.5124 -0.4038  0.8441
 3086SOL    HW210709   1.745   5.374   6.915  0.7804  0.0696 -0.2420
 3087SOL     OW10710   1.351   4.146   6.568  0.2034 -0.4849  0.1275
 3087SOL    HW110711   1.339   4.128   6.475 -1.1426 -0.6304  0.3226
 3087SOL    HW210712   1.417   4.216   6.570 -0.8031  0.5464 -1.0093
 3088SOL     OW10713   4.650   5.907   5.192 -0.7317 -0.0676 -0.3380
 3088SOL    HW110714   4.609   5.858   5.120 -2.8252  1.5784 -0.3690
 3088SOL    HW210715   4.686   5.985   5.150  0.1005 -0.1939  0.1098
 3089SOL     OW10716   6.045   3.090   4.152  0.5722  0.0564 -0.1839
 3089SOL    HW110717   6.015   3.176   4.124  0.7016  0.9025  2.0985
 3089SOL    HW210718   6.141   3.096   4.153  0.7360 -0.9916 -2.4596
 3090SOL     OW10719   3.798   6.291   2.844  0.1274  0.2213 -0.3924
 3090SOL    HW110720   3.738   6.280   2.918  0.6433  1.3448  0.2156
 3090SOL    HW210721   3.881   6.318   2.884  0.9382 -0.8628 -1.2541
 3091SOL     OW10722   6.931   4.435   1.413  0.4329  0.0827  0.0460
 3091SOL    HW110723   6.909   4.343   1.430  0.2483  0.6654  3.8226
 3091SOL    HW210724   6.866   4.464   1.348 -0.4835 -2.0252 -0.0596
 3092SOL     OW10725   6.933   6.275   6.677 -0.1013  0.4122 -0.1369
 3092SOL    HW110726   6.930   6.361   6.719 -0.5566 -0.5308  1.8696
 3092SOL    HW210727   6.884   6.218   6.736 -0.8721 -0.9837 -2.0519
 3093SOL     OW10728   4.975   4.183   2.297 -0.0625 -0.4741  0.7274
 3093SOL    HW110729   5.020   4.256   2.338 -0.5492 -0.9709  2.2211
 3093SOL    HW210730   4.922   4.223   2.228  0.1513  0.5071  1.1215
 3094SOL     OW10731   1.358   4.502   0.727 -0.0610 -0.2302  0.1038
 3094SOL    HW110732   1.321   4.510   0.815 -0.0564 -3.4695  0.5407
 3094SOL    HW210733   1.346   4.588   0.688 -0.8038  1.1025  2.9726
 3095SOL     OW10734   0.628   5.857   5.481 -0.0763 -0.3176  0.1699
 3095SOL    HW110735   0.683   5.792   5.438  0.1775 -0.7006  1.0313
 3095SOL    HW210736   0.670   5.941   5.463 -1.1866 -0.1962 -2.1485
 3096SOL     OW10737   6.592   3.450   0.633  0.7496 -0.0147  0.1719
 3096SOL    HW110738   6.647   3.507   0.580  0.8302 -0.8000 -0.6269
 3096SOL    HW210739   6.638   3.443   0.717  1.2178  0.3347 -0.0509
 3097SOL     OW10740   1.000   5.647   6.184  0.0914  0.5061 -0.1491
 3097SOL    HW110741   1.095   5.655   6.193  0.1748 -1.0669  0.6902
 3097SOL    HW210742   0.984   5.656   6.090  1.3168 -1.1416 -0.5582
 3098SOL     OW10743   4.129   6.223   3.700 -0.3402 -0.0630 -0.4315
 3098SOL    HW110744   4.220   6.193   3.711 -0.3401 -0.4353 -1.3643
 3098SOL    HW210745   4.138   6.315   3.674 -0.2705  0.1702  0.3885
 3099SOL     OW10746   1.025   6.334   3.492  0.2520  0.1196 -1.0788
 3099SOL    HW110747   0.967   6.374   3.556  1.4387 -0.5858  0.5127
 3099SOL    HW210748   1.091   6.400   3.474 -0.0827  0.3183 -1.5909
 3100SOL     OW10749   3.042   4.524   1.171 -0.0017 -0.7142  0.0741
 3100SOL    HW110750   3.020   4.614   1.147  1.5114 -0.0999  0.8209
 3100SOL    HW210751   3.010   4.515   1.261 -1.8138 -1.5793 -0.6085
 3101SOL     OW10752   4.411   3.386   1.339  0.7614  0.3952  0.6238
 3101SOL    HW110753   4.473   3.313   1.328 -0.2854 -0.4138 -0.0912
 3101SOL    HW210754   4.380   3.405   1.250  0.4349  1.1996  0.8989
 3102SOL     OW10755   3.307   6.309   0.025 -0.2537  0.2687  0.1021
 3102SOL    HW110756   3.227   6.261   0.004 -0.0458 -0.1733  0.3027
 3102SOL    HW210757   3.304   6.322   0.120 -1.0383  1.9856 -0.1271
 3103SOL     OW10758   3.791   0.868   0.448 -0.2343  0.3562  0.2065
 3103SOL    HW110759   3.748   0.829   0.372  0.7275  2.2782 -1.4205
 3103SOL    HW210760   3.721   0.910   0.497 -0.6775  0.5456 -0.5710
 3104SOL     OW10761   3.020   3.671   5.880 -0.2008  0.0333 -0.2570
 3104SOL    HW110762   3.063   3.645   5.798  0.2797 -2.4056  0.6644
 3104SOL    HW210763   2.926   3.667   5.860 -0.1475 -2.1228 -0.3570
 3105SOL     OW10764   5.686   2.943   2.141 -0.5464 -0.4091 -0.0670
 3105SOL    HW110765   5.731   2.971   2.220 -0.6205  0.5936 -0.3690
 3105SOL    HW210766   5.606   2.996   2.138 -0.0524  0.3210 -1.3322
 3106SOL     OW10767   3.327   2.928   3.789 -0.5412 -0.5531 -0.4455
 3106SOL    HW110768   3.248   2.907   3.839 -0.3330  0.5969  0.3977
 3106SOL    HW210769   3.379   2.847   3.792 -0.8682 -0.7441  0.5759
 3107SOL     OW10770   6.901   0.942   0.345  0.4834  0.7301 -0.0531
 3107SOL    HW110771   6.849   0.863   0.359 -0.2327  1.2128  0.0697
 3107SOL    HW210772   6.985   0.923   0.386  0.0145  0.3602  0.7561
 3108SOL     OW10773   2.269   0.574   1.189  0.1046  0.4306  0.6920
 3108SOL    HW110774   2.297   0.663   1.209 -2.3426  1.0230  1.8437
 3108SOL    HW210775   2.314   0.519   1.253  0.0690  1.0993  1.3014
 3109SOL     OW10776   0.818   1.194   5.918 -0.4319 -0.6225 -0.1336
 3109SOL    HW110777   0.785   1.260   5.979  3.0482  1.9627 -0.7332
 3109SOL    HW210778   0.783   1.220   5.833  2.6353  2.0778 -0.7581
 3110SOL     OW10779   5.272   2.451   1.054  0.6474 -0.4429 -0.0128
 3110SOL    HW110780   5.282   2.540   1.021  1.3755 -0.4823  0.1016
 3110SOL    HW210781   5.304   2.396   0.983 -0.0031 -0.6286 -0.1691
 3111SOL     OW10782   3.803   2.928   1.437  0.2137 -0.0607  0.1455
 3111SOL    HW110783   3.718   2.898   1.404 -0.0275 -0.5697  1.1855
 3111SOL    HW210784   3.865   2.905   1.368 -0.6272  1.3619 -1.1528
 3112SOL     OW10785   1.580   4.992   1.795  0.1506 -0.3533  0.1596
 3112SOL    HW110786   1.652   5.036   1.750 -1.1536 -0.3032 -1.9628
 3112SOL    HW210787   1.514   5.060   1.807 -0.5641 -0.9705 -0.2030
 3113SOL     OW10788   1.050   0.632   4.892 -0.2106 -0.2244 -0.7377
 3113SOL    HW110789   1.012   0.719   4.906  1.3809  0.3438  0.3593
 3113SOL    HW210790   0.993   0.573   4.942 -0.2429  0.4669  0.0743
 3114SOL     OW10791   3.447   0.127   0.502  0.1552  0.1004  0.0011
 3114SOL    HW110792   3.509   0.061   0.532 -1.3522 -0.8633  1.1829
 3114SOL    HW210793   3.369   0.113   0.557 -0.6409  2.0921 -0.5247
 3115SOL     OW10794   1.484   6.449   4.928 -0.0649  0.7000  0.0728
 3115SOL    HW110795   1.539   6.407   4.994  0.4432  0.2170 -0.6424
 3115SOL    HW210796   1.546   6.476   4.859 -0.7256  0.0736 -0.7838
 3116SOL     OW10797   0.884   3.783   6.644  0.6091  0.0356 -0.4904
 3116SOL    HW110798   0.818   3.714   6.640  0.7304 -0.0311 -1.8479
 3116SOL    HW210799   0.930   3.777   6.560  0.3070  2.0727 -0.8369
 3117SOL     OW10800   6.745   4.503   1.207  0.3143  0.8702  0.4552
 3117SOL    HW110801   6.789   4.586   1.229  1.3690  0.7685 -1.0944
 3117SOL    HW210802   6.671   4.529   1.152  1.7054  0.7431 -1.5954
 3118SOL     OW10803   3.033   4.458   5.516  0.2603  0.2527  0.7320
 3118SOL    HW110804   3.036   4.513   5.437 -1.2609 -0.7050 -0.0474
 3118SOL    HW210805   2.962   4.495   5.568  0.7373  0.3938  1.2963
 3119SOL     OW10806   3.306   0.189   3.093 -0.3133 -0.7049  0.4602
 3119SOL    HW110807   3.361   0.179   3.016 -1.1918  0.4911 -0.3615
 3119SOL    HW210808   3.279   0.100   3.115  0.0585 -1.0739 -0.5289
 3120SOL     OW10809   5.415   1.350   3.286  0.4979 -0.1613  0.1111
 3120SOL    HW110810   5.469   1.379   3.359 -0.2049  1.9729 -0.1563
 3120SOL    HW210811   5.466   1.280   3.245  2.1948  0.5097  0.9810
 3121SOL     OW10812   2.720   1.762   4.752 -0.0581  0.0300 -0.3324
 3121SOL    HW110813   2.698   1.672   4.728 -1.4667  0.0614  0.7283
 3121SOL    HW210814   2.679   1.816   4.685  0.4612 -0.0946 -0.7549
 3122SOL     OW10815   3.691   6.604   1.576 -0.0438  0.3280 -0.0105
 3122SOL    HW110816   3.648   6.546   1.639 -0.1723  0.4997  0.0604
 3122SOL    HW210817   3.625   6.621   1.509  0.5578 -1.0562 -0.9917
 3123SOL     OW10818   6.122   6.468   4.798  0.1188 -0.3993  0.5966
 3123SOL    HW110819   6.103   6.513   4.880  1.2651  1.2271  0.0226
 3123SOL    HW210820   6.131   6.376   4.823 -1.2981 -0.2054  1.9735
 3124SOL     OW10821   5.408   5.877   4.305  0.0220 -1.1589  0.3620
 3124SOL    HW110822   5.433   5.880   4.397 -0.3989 -2.7551  0.5601
 3124SOL    HW210823   5.381   5.786   4.290 -0.6071 -0.7622 -1.1515
 3125SOL     OW10824   6.054   6.027   0.024  0.1688 -0.0165 -0.3703
 3125SOL    HW110825   6.031   5.993   0.111  1.0824  0.1657 -0.0434
 3125SOL    HW210826   6.124   6.089   0.041 -0.0627  0.4821 -1.1875
 3126SOL     OW10827   5.612   4.525   0.024 -0.2240 -0.8365  0.5322
 3126SOL    HW110828   5.549   4.485  -0.036 -0.2037 -1.7444  1.1091
 3126SOL    HW210829   5.568   4.604   0.055 -0.1679 -0.2503 -0.7921
 3127SOL     OW10830   1.662   1.266   2.193  0.2305 -0.3460 -0.2190
 3127SOL    HW110831   1.739   1.252   2.138  0.2090  0.6437 -0.5180
 3127SOL    HW210832   1.608   1.188   2.180  1.4331 -1.3246  0.4337
 3128SOL     OW10833   6.368   4.834   1.664 -0.2099  0.1896 -0.1491
 3128SOL    HW110834   6.438   4.878   1.712 -0.6987 -0.2418  0.9932
 3128SOL    HW210835   6.413   4.771   1.608  0.4217  1.2682 -0.9094
 3129SOL     OW10836   3.402   1.517   6.218 -0.0412  0.0050 -0.0570
 3129SOL    HW110837   3.455   1.473   6.151 -0.0472  1.7172 -1.2471
 3129SOL    HW210838   3.336   1.451   6.243  1.1155 -1.3085 -0.3314
 3130SOL     OW10839   6.829   1.457   0.264 -0.1282 -0.8314 -0.3685
 3130SOL    HW110840   6.786   1.423   0.185 -1.6362  0.2995 -0.0772
 3130SOL    HW210841   6.790   1.408   0.336 -0.8952  0.1173 -0.1107
 3131SOL     OW10842   4.920   5.546   0.468 -0.6850 -0.0304 -0.2466
 3131SOL    HW110843   4.988   5.498   0.514 -1.6499 -0.0845  1.1885
 3131SOL    HW210844   4.840   5.495   0.484 -0.9320 -0.6543 -2.8907
 3132SOL     OW10845   5.325   0.107   2.586  0.5045  0.1831  0.4972
 3132SOL    HW110846   5.396   0.097   2.650  0.3946 -0.2095  0.5575
 3132SOL    HW210847   5.285   0.021   2.581 -0.8251  0.7156  1.4487
 3133SOL     OW10848   2.568   4.304   2.181  0.1744 -0.1754 -0.5620
 3133SOL    HW110849   2.527   4.367   2.121 -0.9056 -0.5122 -0.2095
 3133SOL    HW210850   2.662   4.311   2.164  0.0299  1.1169 -0.9395
 3134SOL     OW10851   3.800   3.313   0.301 -0.1814 -0.8512  0.9777
 3134SOL    HW110852   3.863   3.384   0.293 -2.0747  0.7857 -0.4205
 3134SOL    HW210853   3.839   3.240   0.253 -0.5578  1.0630 -2.5223
 3135SOL     OW10854   6.519   6.137   1.821  0.0224  0.2681  0.0284
 3135SOL    HW110855   6.461   6.141   1.897 -1.5134 -1.9215 -0.9340
 3135SOL    HW210856   6.590   6.079   1.848 -1.0266 -1.3026 -0.4494
 3136SOL     OW10857   6.668   0.239   4.359  0.4514 -0.0165  0.0589
 3136SOL    HW110858   6.662   0.272   4.449 -0.1638 -0.1136  0.0538
 3136SOL    HW210859   6.585   0.194   4.344 -0.1445  1.3724 -1.0921
 3137SOL     OW10860   6.220   0.852   0.228 -0.1781  0.2143  0.0681
 3137SOL    HW110861   6.278   0.888   0.161  1.3146 -0.7067  0.8086
 3137SOL    HW210862   6.193   0.928   0.280 -1.4643  0.9572 -1.6097
 3138SOL     OW10863   3.650   5.470   4.089 -0.5762  0.0488 -0.2407
 3138SOL    HW110864   3.632   5.385   4.129 -0.4975 -0.1816 -0.6915
 3138SOL    HW210865   3.564   5.511   4.081 -0.3613  1.6773  3.5505
 3139SOL     OW10866   6.720   2.558   3.408 -0.0863 -0.6204  0.2164
 3139SOL    HW110867   6.707   2.644   3.369  0.2418 -0.5322  0.3016
 3139SOL    HW210868   6.651   2.551   3.474  0.3878 -0.0813  0.7841
 3140SOL     OW10869   1.495   3.161   6.777  0.1569 -0.8298  0.3402
 3140SOL    HW110870   1.470   3.069   6.773  2.0192 -1.3431 -0.2448
 3140SOL    HW210871   1.505   3.187   6.685 -1.2298  0.2345  0.4607
 3141SOL     OW10872   0.365   2.553   7.039  0.3919  0.1905  0.2837
 3141SOL    HW110873   0.452   2.568   7.075  0.1642  1.1333  0.4458
 3141SOL    HW210874   0.305   2.595   7.100 -0.0330  1.4504 -0.9401
 3142SOL     OW10875   0.763   4.146   1.292  0.3652 -0.1910  0.0251
 3142SOL    HW110876   0.717   4.074   1.249 -0.2538 -0.5708  1.2900
 3142SOL    HW210877   0.794   4.200   1.220 -3.5176  1.0356 -0.9928
 3143SOL     OW10878   6.599   1.335   5.488  0.1210  0.1681  0.2644
 3143SOL    HW110879   6.523   1.287   5.521  0.1612 -0.2940 -0.2859
 3143SOL    HW210880   6.570   1.371   5.404  0.7814 -0.8024 -0.4088
 3144SOL     OW10881   5.932   2.847   4.294 -0.0466  0.4369  0.0452
 3144SOL    HW110882   5.956   2.910   4.226  0.1340  1.1571  0.7516
 3144SOL    HW210883   6.015   2.817   4.329 -0.0777 -1.4464 -1.3561
 3145SOL     OW10884   0.474   2.032   2.180  0.5683 -0.3635  0.0810
 3145SOL    HW110885   0.418   1.993   2.246  0.0313  0.5752  0.2022
 3145SOL    HW210886   0.443   1.996   2.097 -1.1397  1.1571  0.0124
 3146SOL     OW10887   0.173   2.145   1.948  0.1498 -0.1448  0.1899
 3146SOL    HW110888   0.100   2.173   2.004 -1.0980 -0.1491 -1.3544
 3146SOL    HW210889   0.156   2.052   1.932 -0.8119  0.3362 -1.9541
 3147SOL     OW10890   2.184   6.873   5.990  0.1898 -0.7335  0.1694
 3147SOL    HW110891   2.161   6.846   6.079 -1.8194  0.1252 -0.0407
 3147SOL    HW210892   2.108   6.850   5.936  1.0763 -0.5922 -1.1976
 3148SOL     OW10893   6.380   4.139   0.330  0.7545  0.0177 -0.1274
 3148SOL    HW110894   6.443   4.067   0.328 -0.9231 -1.6431  1.9702
 3148SOL    HW210895   6.369   4.160   0.423 -0.9457  0.9872 -0.4965
 3149SOL     OW10896   1.707   4.627   6.003 -0.2803  0.1254  0.0444
 3149SOL    HW110897   1.637   4.673   5.956 -1.1282 -0.4707  0.7066
 3149SOL    HW210898   1.769   4.601   5.935  0.2058  2.1671 -0.3747
 3150SOL     OW10899   5.030   1.821   6.676 -0.2397  0.3457 -0.0101
 3150SOL    HW110900   5.106   1.768   6.698 -0.3686 -0.3356 -1.0946
 3150SOL    HW210901   4.976   1.820   6.755 -0.0778 -0.8722  0.1077
 3151SOL     OW10902   0.959   1.462   6.919  0.0187  0.3062 -0.0326
 3151SOL    HW110903   0.974   1.463   7.014  2.2248 -0.9292 -0.3097
 3151SOL    HW210904   1.041   1.493   6.881  0.2166 -1.9670 -1.6084
 3152SOL     OW10905   5.798   6.403   2.330  0.3533 -0.3031  0.0243
 3152SOL    HW110906   5.797   6.308   2.341  0.1667 -0.2542  0.4194
 3152SOL    HW210907   5.725   6.435   2.382 -0.1094 -0.0096 -0.7729
 3153SOL     OW10908   1.420   1.734   2.775  0.7876 -0.2600 -0.1037
 3153SOL    HW110909   1.430   1.665   2.710  0.9186 -0.1933 -0.1550
 3153SOL    HW210910   1.327   1.756   2.773  0.7731 -0.3288 -0.1955
 3154SOL     OW10911   1.341   4.148   6.280  0.1133 -0.2778 -0.2843
 3154SOL    HW110912   1.255   4.183   6.255  1.1221  1.7435 -1.2332
 3154SOL    HW210913   1.352   4.070   6.226 -1.3616 -0.9241  0.3133
 3155SOL     OW10914   6.752   4.961   5.611  0.2921  0.7364 -0.2260
 3155SOL    HW110915   6.835   4.989   5.651  1.1323 -0.0016 -1.4039
 3155SOL    HW210916   6.765   4.868   5.592 -0.6804  0.7018 -0.7623
 3156SOL     OW10917   2.549   4.766   2.368 -0.3131  0.0605 -0.0191
 3156SOL    HW110918   2.514   4.718   2.444  0.5727 -1.0372 -0.2809
 3156SOL    HW210919   2.510   4.722   2.293  0.4759 -0.2325 -0.2628
 3157SOL     OW10920   1.005   0.775   5.320 -0.1254 -0.0110 -0.0280
 3157SOL    HW110921   0.981   0.725   5.398  0.8395 -2.8549 -1.4155
 3157SOL    HW210922   0.923   0.791   5.275 -0.4658 -0.3250  0.4716
 3158SOL     OW10923   5.616   5.518   6.058 -0.2565 -0.8549 -0.1563
 3158SOL    HW110924   5.636   5.435   6.015 -1.7681 -1.4030  0.1504
 3158SOL    HW210925   5.535   5.501   6.107 -0.1857  0.5887  0.5125
 3159SOL     OW10926   6.130   4.834   4.156 -0.1095 -0.0519  0.0041
 3159SOL    HW110927   6.141   4.794   4.242  2.4183  0.7991  0.1509
 3159SOL    HW210928   6.216   4.871   4.135 -0.7686  0.1536 -2.7094
 3160SOL     OW10929   1.092   6.718   6.016  0.1694  0.1495 -0.7131
 3160SOL    HW110930   1.175   6.759   5.997  0.8461 -0.9127 -0.1708
 3160SOL    HW210931   1.027   6.787   6.003  1.0314  0.7586 -2.0029
 3161SOL     OW10932   5.131   6.332   6.559  0.3639  0.2581 -0.0334
 3161SOL    HW110933   5.186   6.262   6.524  0.9800  0.0545  1.2698
 3161SOL    HW210934   5.193   6.404   6.577  0.3031 -0.0720  1.7119
 3162SOL     OW10935   3.975   3.362   0.577 -0.1703 -0.5141 -0.9427
 3162SOL    HW110936   3.917   3.347   0.652 -0.1043  2.0344 -0.2888
 3162SOL    HW210937   4.062   3.344   0.611 -0.2103 -0.0976 -0.6022
 3163SOL     OW10938   5.643   6.348   3.823  0.1584 -0.2581 -0.4642
 3163SOL    HW110939   5.701   6.369   3.750 -0.6209  0.9210 -0.7626
 3163SOL    HW210940   5.700   6.344   3.899  0.6172  1.1166 -0.7160
 3164SOL     OW10941   5.886   6.378   2.062 -0.2949 -0.3087  0.0393
 3164SOL    HW110942   5.853   6.374   2.152 -0.4084 -0.4304 -0.0070
 3164SOL    HW210943   5.818   6.426   2.014 -0.1236 -0.0350  0.0670
 3165SOL     OW10944   6.926   2.109   1.747  0.0849 -0.4724  0.1472
 3165SOL    HW110945   6.868   2.184   1.754 -1.6831 -1.6509 -0.9246
 3165SOL    HW210946   6.927   2.071   1.835  0.4459  0.3987  0.5263
 3166SOL     OW10947   3.364   0.265   1.082  0.1464 -0.0371 -0.1003
 3166SOL    HW110948   3.407   0.187   1.119 -0.8473 -1.2800 -1.4594
 3166SOL    HW210949   3.315   0.232   1.007 -1.2544  1.7239 -0.0218
 3167SOL     OW10950   3.096   2.159   6.404 -0.1049 -0.1950 -0.2288
 3167SOL    HW110951   3.094   2.222   6.476 -1.0364  0.0480 -0.4559
 3167SOL    HW210952   3.013   2.112   6.411  1.1515 -2.4900  0.8726
 3168SOL     OW10953   1.536   2.592   5.361  0.4216  0.4475  0.0150
 3168SOL    HW110954   1.556   2.676   5.319  1.7547 -0.2564 -0.8510
 3168SOL    HW210955   1.456   2.562   5.317  1.1595  0.2628 -1.2624
 3169SOL     OW10956   2.342   0.404   1.738 -0.3840  0.4745  0.1048
 3169SOL    HW110957   2.357   0.462   1.663 -0.5112  2.2325  1.3959
 3169SOL    HW210958   2.420   0.348   1.741 -0.6103 -0.0120 -1.6334
 3170SOL     OW10959   0.463   4.226   2.311 -0.3403 -0.0602  0.2655
 3170SOL    HW110960   0.522   4.221   2.387 -2.0271 -0.4404  1.5962
 3170SOL    HW210961   0.474   4.315   2.278  0.9016 -0.0956  0.5327
 3171SOL     OW10962   0.662   6.972   5.488  0.0532  0.5724 -0.2899
 3171SOL    HW110963   0.645   6.878   5.483 -0.2635  0.6532 -0.8516
 3171SOL    HW210964   0.717   6.991   5.412 -0.3233  0.9292 -0.4769
 3172SOL     OW10965   4.524   3.937   0.905  0.0243 -0.2127 -0.2275
 3172SOL    HW110966   4.533   4.016   0.959 -0.6426  0.0762 -0.5300
 3172SOL    HW210967   4.615   3.908   0.889  0.3228  1.0128 -0.8758
 3173SOL     OW10968   4.947   6.587   2.346  0.0391 -0.2627  0.0606
 3173SOL    HW110969   5.037   6.564   2.320 -0.3759 -1.4062 -0.4456
 3173SOL    HW210970   4.942   6.564   2.439  0.4822  0.5088  0.2835
 3174SOL     OW10971   1.031   0.031   2.220 -0.5981 -0.4644  0.5626
 3174SOL    HW110972   1.082  -0.037   2.264 -1.6555 -1.6906 -0.0460
 3174SOL    HW210973   1.079   0.112   2.237  0.6933 -1.3559  1.3028
 3175SOL     OW10974   5.661   1.984   5.009  0.2766  0.0902  0.3692
 3175SOL    HW110975   5.714   1.986   4.929 -0.0656  0.8759  0.1544
 3175SOL    HW210976   5.574   2.012   4.982 -0.0106 -0.2496  0.9073
 3176SOL     OW10977   1.936   5.784   3.890  0.8916  0.5151  0.0135
 3176SOL    HW110978   1.861   5.842   3.899  0.2984 -0.3561  0.8865
 3176SOL    HW210979   1.954   5.781   3.796 -1.5767 -0.9785 -0.5002
 3177SOL     OW10980   2.726   4.518   4.727  0.0035 -0.3133 -0.2271
 3177SOL    HW110981   2.636   4.510   4.757  0.0737 -1.2044 -0.2166
 3177SOL    HW210982   2.720   4.560   4.642 -0.5182 -1.3046 -0.6946
 3178SOL     OW10983   2.399   3.608   6.271 -0.5023 -0.1235 -0.2855
 3178SOL    HW110984   2.383   3.648   6.186 -1.8800 -1.7147 -0.8200
 3178SOL    HW210985   2.342   3.655   6.331  0.0011  0.5761 -0.3392
 3179SOL     OW10986   6.995   6.536   0.919  0.0225 -0.2648 -0.7003
 3179SOL    HW110987   7.071   6.479   0.913  0.8729  0.7837 -0.2234
 3179SOL    HW210988   6.981   6.547   1.013 -1.2690 -1.1381 -0.7667
 3180SOL     OW10989   5.653   1.204   3.406 -0.0336 -0.5204 -0.3907
 3180SOL    HW110990   5.629   1.131   3.462  0.0797  0.1290  0.5189
 3180SOL    HW210991   5.610   1.280   3.446  2.3004  0.4370  0.4269
 3181SOL     OW10992   6.873   0.245   2.519 -0.2237 -0.1745 -0.6344
 3181SOL    HW110993   6.884   0.261   2.613 -1.4610  0.6479 -0.6049
 3181SOL    HW210994   6.807   0.177   2.514  1.7001 -2.1113 -0.8847
 3182SOL     OW10995   2.340   0.274   5.342 -0.5279  0.4040 -0.2349
 3182SOL    HW110996   2.297   0.208   5.287  0.9143 -0.5630 -0.2562
 3182SOL    HW210997   2.320   0.357   5.300 -3.0533  0.1259  0.2187
 3183SOL     OW10998   3.779   0.909   6.933 -0.1001  0.0886 -0.0223
 3183SOL    HW110999   3.821   0.960   7.003  0.2461  0.3771 -0.4302
 3183SOL    HW211000   3.693   0.886   6.968  0.7064 -1.2563  1.1739
 3184SOL     OW11001   5.976   3.189   1.842 -0.3730  0.1311  0.0472
 3184SOL    HW111002   6.002   3.197   1.934  1.2716  0.8182 -0.4453
 3184SOL    HW211003   6.059   3.180   1.795 -1.1907 -0.1043 -1.3907
 3185SOL     OW11004   2.881   0.118   3.455 -0.1596  0.1236 -0.1476
 3185SOL    HW111005   2.836   0.040   3.423 -0.4752  0.4154 -0.4194
 3185SOL    HW211006   2.948   0.084   3.515 -0.7098 -0.3131  0.2288
 3186SOL     OW11007   7.094   3.706   2.273  0.2627  0.1813  0.4440
 3186SOL    HW111008   7.059   3.780   2.321 -1.4739 -1.3219  1.6184
 3186SOL    HW211009   7.034   3.634   2.291  0.5420 -0.9639 -2.5187
 3187SOL     OW11010   2.715   4.421   5.857 -0.0402 -0.0717  0.3650
 3187SOL    HW111011   2.762   4.342   5.882  1.6900  0.4765 -0.9190
 3187SOL    HW211012   2.638   4.423   5.914  0.3410 -2.1792  1.0345
 3188SOL     OW11013   3.058   6.390   2.951  0.0598 -0.0034 -0.6496
 3188SOL    HW111014   2.967   6.378   2.978  0.5858  0.1556  1.2868
 3188SOL    HW211015   3.067   6.485   2.942  0.2182  0.0326 -0.1352
 3189SOL     OW11016   2.160   0.203   1.269 -0.2040  0.4758  0.3311
 3189SOL    HW111017   2.247   0.201   1.307  0.1879 -0.7110 -0.5917
 3189SOL    HW211018   2.173   0.182   1.177 -1.3929  0.9961  0.0170
 3190SOL     OW11019   6.074   2.891   1.180  0.1281  0.1502  0.4442
 3190SOL    HW111020   6.076   2.900   1.084  0.1258  0.2618  0.4544
 3190SOL    HW211021   6.021   2.965   1.209  1.7165  1.2662  0.6668
 3191SOL     OW11022   1.027   5.368   0.831 -0.4842  0.1145 -0.6735
 3191SOL    HW111023   1.016   5.305   0.903 -0.4832  0.8710  0.0005
 3191SOL    HW211024   1.119   5.395   0.838 -0.4952  0.2161 -0.9394
 3192SOL     OW11025   5.687   3.265   4.174 -0.3532 -0.4081 -0.6110
 3192SOL    HW111026   5.647   3.348   4.146 -1.1895  0.2832  2.2702
 3192SOL    HW211027   5.673   3.263   4.269  2.5897 -2.3069 -0.1048
 3193SOL     OW11028   4.268   3.046   1.307 -0.1736  1.2323 -0.0645
 3193SOL    HW111029   4.244   3.065   1.398  1.1333  0.1445  0.5326
 3193SOL    HW211030   4.359   3.074   1.300  0.4662 -0.7512 -0.3596
 3194SOL     OW11031   4.549   6.343   5.986  0.3129  0.4390 -0.1457
 3194SOL    HW111032   4.588   6.280   6.047  0.1051  0.8412  0.4093
 3194SOL    HW211033   4.613   6.413   5.980  0.2793  0.4562 -0.3019
 3195SOL     OW11034   2.092   0.008   2.691 -0.1045 -0.0232  0.3693
 3195SOL    HW111035   2.136   0.002   2.606 -1.3741  2.4062 -0.5748
 3195SOL    HW211036   2.000  -0.012   2.671 -0.4482  0.7529  1.1125
 3196SOL     OW11037   6.449   0.964   4.365 -0.2223 -0.4190 -0.0032
 3196SOL    HW111038   6.379   0.928   4.419 -0.4054  1.1317  0.8381
 3196SOL    HW211039   6.458   0.901   4.293 -1.0379 -1.7125  0.9863
 3197SOL     OW11040   6.484   3.293   7.120  0.1377  0.4389  0.0810
 3197SOL    HW111041   6.518   3.382   7.108  3.5773 -0.6724  0.3360
 3197SOL    HW211042   6.490   3.279   7.214 -1.0702  0.1517  0.1216
 3198SOL     OW11043   0.799   3.173   4.129 -0.4151  0.5051  0.2209
 3198SOL    HW111044   0.842   3.230   4.193  0.1491  1.9483 -1.3434
 3198SOL    HW211045   0.720   3.220   4.104 -1.8480 -1.1048  1.4375
 3199SOL     OW11046   4.948   0.422   6.321  0.1122  0.0925 -0.3318
 3199SOL    HW111047   4.991   0.347   6.363 -1.9600  0.0787  2.0017
 3199SOL    HW211048   4.981   0.422   6.231  0.3287 -3.5354 -0.3948
 3200SOL     OW11049   1.079   3.545   5.396 -0.1092  0.1965  0.1881
 3200SOL    HW111050   1.062   3.601   5.472  0.1403  1.0655 -0.3915
 3200SOL    HW211051   1.031   3.464   5.415  1.5980 -0.4371  2.2719
 3201SOL     OW11052   5.464   5.013   4.152  0.4012 -0.2223 -0.9754
 3201SOL    HW111053   5.442   4.996   4.061  0.7379  0.3293 -1.1650
 3201SOL    HW211054   5.493   5.104   4.153  1.1607 -0.4576 -0.4595
 3202SOL     OW11055   2.651   6.491   0.051  0.0530  1.0813  0.4857
 3202SOL    HW111056   2.676   6.539  -0.028  0.7161  0.7118  0.4567
 3202SOL    HW211057   2.556   6.481   0.045  0.3159 -1.1468 -1.5825
 3203SOL     OW11058   3.477   1.736   6.062 -0.3946 -0.0200 -0.3356
 3203SOL    HW111059   3.501   1.697   6.146  1.7272  0.9246 -0.4592
 3203SOL    HW211060   3.460   1.828   6.083 -0.6826  0.0380 -0.8154
 3204SOL     OW11061   2.067   3.016   1.251 -0.2781 -0.1605 -0.1149
 3204SOL    HW111062   2.024   3.069   1.183  0.9392 -0.1742 -0.9309
 3204SOL    HW211063   2.157   3.048   1.253 -0.1973 -0.4263  1.2479
 3205SOL     OW11064   1.647   2.714   0.435  0.0816  0.1497  0.8238
 3205SOL    HW111065   1.559   2.751   0.445 -0.9575 -1.3813 -1.5844
 3205SOL    HW211066   1.665   2.672   0.519 -0.9727  1.4715  1.7586
 3206SOL     OW11067   2.077   6.574   2.214 -0.1069 -0.2298 -0.4167
 3206SOL    HW111068   2.004   6.547   2.158 -0.8235  0.5902  0.0939
 3206SOL    HW211069   2.044   6.651   2.260 -0.1675 -1.8027  2.3571
 3207SOL     OW11070   3.248   6.301   0.858  0.3850  0.5423 -0.1579
 3207SOL    HW111071   3.164   6.289   0.814  1.1032 -1.9500 -1.0055
 3207SOL    HW211072   3.225   6.327   0.947 -1.1912  1.8656 -0.9092
 3208SOL     OW11073   2.472   1.399   2.821 -0.2630  0.3552 -0.2667
 3208SOL    HW111074   2.501   1.333   2.757  0.8741  0.7672 -0.2016
 3208SOL    HW211075   2.404   1.355   2.872 -0.0147 -0.5300 -0.6803
 3209SOL     OW11076   5.741   7.050   1.194  0.0184  0.4489 -0.8931
 3209SOL    HW111077   5.714   6.975   1.141  0.9887  0.2275 -1.0879
 3209SOL    HW211078   5.833   7.063   1.171  0.4829  0.2913  0.7950
 3210SOL     OW11079   5.452   4.619   5.629 -0.7628 -0.5598 -0.5444
 3210SOL    HW111080   5.449   4.554   5.699 -0.4811  0.2488  0.2359
 3210SOL    HW211081   5.534   4.602   5.584  0.9434  1.2338  1.6562
 3211SOL     OW11082   3.238   2.424   0.075 -0.0432 -0.5052 -0.3929
 3211SOL    HW111083   3.290   2.477   0.014  0.8233 -1.2757 -0.3356
 3211SOL    HW211084   3.234   2.338   0.035 -0.5725 -0.6744  0.0188
 3212SOL     OW11085   6.874   4.693   6.688 -0.0586 -0.0288  0.0339
 3212SOL    HW111086   6.851   4.622   6.747 -0.2446 -1.5995 -1.8314
 3212SOL    HW211087   6.944   4.657   6.633  1.2194  1.9159  0.3055
 3213SOL     OW11088   1.966   3.017   0.228  0.3720  0.0916 -0.2205
 3213SOL    HW111089   1.923   3.022   0.143  0.8325 -0.7664 -0.5069
 3213SOL    HW211090   2.043   3.073   0.219  0.2540  0.2488 -0.2625
 3214SOL     OW11091   5.703   4.368   3.161  0.5571 -0.0118  0.2474
 3214SOL    HW111092   5.781   4.373   3.215 -0.4310  2.1920  1.5746
 3214SOL    HW211093   5.699   4.452   3.115  0.0366 -0.8761 -1.3749
 3215SOL     OW11094   6.405   0.948   3.137  0.1995 -0.0837  0.2536
 3215SOL    HW111095   6.391   0.880   3.072 -1.8484  1.0025 -0.5225
 3215SOL    HW211096   6.374   1.029   3.096  0.2784  0.9084  2.0119
 3216SOL     OW11097   3.379   0.587   0.042 -0.3938  0.3396 -0.2404
 3216SOL    HW111098   3.284   0.594   0.038 -0.6316 -2.1870 -0.9272
 3216SOL    HW211099   3.397   0.555   0.131 -0.5090 -1.9340 -0.9683
 3217SOL     OW11100   1.791   0.489   3.128 -0.0963 -0.2629 -0.1761
 3217SOL    HW111101   1.705   0.524   3.148 -0.2465 -1.5938  1.8037
 3217SOL    HW211102   1.776   0.426   3.058 -1.0353 -1.5087  1.0760
 3218SOL     OW11103   6.810   1.832   7.085 -0.0269  0.5050  0.3543
 3218SOL    HW111104   6.862   1.902   7.045 -0.4805  0.4967 -0.2721
 3218SOL    HW211105   6.874   1.777   7.130  0.4570  0.7554 -0.0178
 3219SOL     OW11106   0.372   3.536   1.392  0.1830  0.5665 -0.9944
 3219SOL    HW111107   0.300   3.522   1.453  2.3509 -2.3498  1.2004
 3219SOL    HW211108   0.363   3.465   1.328  1.2537 -0.0568 -0.4776
 3220SOL     OW11109   5.913   5.492   0.231 -0.5946 -0.6490  0.1032
 3220SOL    HW111110   5.848   5.536   0.287  0.1267  2.2617 -1.1374
 3220SOL    HW211111   5.863   5.459   0.157 -0.8374  0.6278 -0.3225
 3221SOL     OW11112   3.199   5.159   0.530  0.3122 -0.1360  0.0503
 3221SOL    HW111113   3.154   5.241   0.509 -0.8040 -0.6519  0.3548
 3221SOL    HW211114   3.130   5.101   0.560  1.3989 -0.4766  2.0511
 3222SOL     OW11115   3.155   6.192   5.805 -0.8024 -1.0255 -0.2689
 3222SOL    HW111116   3.172   6.242   5.885  0.8417 -0.7689 -0.7548
 3222SOL    HW211117   3.089   6.127   5.831 -2.3034  0.7383  0.6107
 3223SOL     OW11118   6.391   3.145   3.549  0.1246  0.1552 -0.0284
 3223SOL    HW111119   6.476   3.155   3.592  0.2418 -2.4361  0.4743
 3223SOL    HW211120   6.410   3.106   3.465 -0.5753 -0.5964  0.1536
 3224SOL     OW11121   2.286   6.202   6.509 -0.4959 -0.5891  0.2474
 3224SOL    HW111122   2.260   6.258   6.436 -0.5361 -0.8564  0.0565
 3224SOL    HW211123   2.214   6.141   6.520  0.6072 -2.2609 -1.2168
 3225SOL     OW11124   0.060   2.681   3.571 -0.1221 -0.0269  0.2187
 3225SOL    HW111125  -0.031   2.656   3.557  0.2290 -0.7049 -0.9678
 3225SOL    HW211126   0.059   2.777   3.571 -0.6618 -0.0151 -1.0591
 3226SOL     OW11127   3.070   0.094   6.363  0.2554 -0.2024  0.3853
 3226SOL    HW111128   3.029   0.120   6.281  0.1087 -0.6854  0.2994
 3226SOL    HW211129   3.013   0.025   6.397 -0.3685  0.8399  1.5147
 3227SOL     OW11130   7.013   0.177   3.021 -0.2461 -0.0870 -0.1735
 3227SOL    HW111131   7.007   0.089   3.056  1.3872  0.5942  2.0908
 3227SOL    HW211132   7.101   0.182   2.982 -0.3411  0.5248 -0.3346
 3228SOL     OW11133   2.927   0.935   0.608 -0.6992  0.4420  0.1637
 3228SOL    HW111134   2.990   0.956   0.677  0.1839  0.8573 -0.7385
 3228SOL    HW211135   2.892   1.020   0.581 -0.7136  0.3287 -0.1862
 3229SOL     OW11136   6.145   6.720   1.413 -0.1526 -0.7575 -0.1354
 3229SOL    HW111137   6.198   6.656   1.460  0.7790 -0.3107 -0.5615
 3229SOL    HW211138   6.147   6.799   1.467  0.5799 -0.3751 -0.7064
 3230SOL     OW11139   1.898   4.468   1.595 -0.1356  0.0302  0.2479
 3230SOL    HW111140   1.847   4.387   1.605 -0.3458  0.3502  2.2834
 3230SOL    HW211141   1.872   4.522   1.669  2.6027  0.5027  0.9815
 3231SOL     OW11142   6.544   3.184   0.795 -0.3631  0.1421 -0.0755
 3231SOL    HW111143   6.521   3.224   0.879  0.6595  0.3448  0.1192
 3231SOL    HW211144   6.525   3.253   0.730  0.0769  0.4555  0.1223
 3232SOL     OW11145   0.039   2.493   1.240 -0.2777  0.3703 -0.4181
 3232SOL    HW111146   0.083   2.539   1.169  2.0509  0.7265  1.1449
 3232SOL    HW211147  -0.016   2.559   1.282 -1.3460  0.2566 -1.6091
 3233SOL     OW11148   4.728   6.671   6.663  0.7576  0.4137 -0.2485
 3233SOL    HW111149   4.719   6.616   6.585  1.4912 -0.1481  0.0373
 3233SOL    HW211150   4.821   6.697   6.662  0.8234  0.2279  0.5359
 3234SOL     OW11151   4.631   5.433   0.885 -0.1374  0.2592  0.3575
 3234SOL    HW111152   4.580   5.365   0.841  0.1063  0.8455 -0.8606
 3234SOL    HW211153   4.590   5.441   0.971 -0.4980 -1.0490  0.3328
 3235SOL     OW11154   3.204   5.458   3.467  0.7082 -0.3427 -0.5352
 3235SOL    HW111155   3.229   5.548   3.485 -1.2716  0.0029  0.8853
 3235SOL    HW211156   3.115   5.450   3.502  1.0039 -2.9825 -0.1269
 3236SOL     OW11157   0.815   0.132   3.676  0.0554 -0.0562 -0.3849
 3236SOL    HW111158   0.725   0.137   3.642 -0.0671  0.5725  0.0265
 3236SOL    HW211159   0.817   0.195   3.748  0.6269 -0.5883  0.0748
 3237SOL     OW11160   5.028   0.047   3.081 -0.1092  0.5218  0.3543
 3237SOL    HW111161   5.004   0.026   2.991  0.1025  0.7814  0.2354
 3237SOL    HW211162   4.962   0.109   3.110  1.1424  2.3298 -0.4388
 3238SOL     OW11163   4.556   4.483   5.295 -0.2493  0.0550  0.1550
 3238SOL    HW111164   4.501   4.421   5.343  0.3508 -0.7369 -0.1569
 3238SOL    HW211165   4.638   4.486   5.344  0.2005 -0.4146 -0.5391
 3239SOL     OW11166   4.181   0.270   2.907  0.6778 -0.1063 -0.5011
 3239SOL    HW111167   4.154   0.249   2.817 -0.5480 -0.2507 -0.1173
 3239SOL    HW211168   4.251   0.207   2.925 -0.2899 -1.2966 -0.7460
 3240SOL     OW11169   1.595   3.087   1.653  0.5869 -0.0389 -0.0136
 3240SOL    HW111170   1.589   3.090   1.749 -0.6658  0.2883 -0.0817
 3240SOL    HW211171   1.636   3.170   1.629  0.4273  0.1087  0.2177
 3241SOL     OW11172   4.302   6.772   6.838  0.1360  0.5546 -0.3038
 3241SOL    HW111173   4.366   6.720   6.886  0.4376 -0.3212 -1.5934
 3241SOL    HW211174   4.347   6.797   6.757 -0.3777  1.9310 -0.1996
 3242SOL     OW11175   1.659   4.073   6.180 -0.0853 -0.2304  0.3334
 3242SOL    HW111176   1.745   4.115   6.176 -0.0970 -0.2858 -1.0496
 3242SOL    HW211177   1.646   4.036   6.093 -1.9779  0.7019  0.1503
 3243SOL     OW11178   5.654   3.948   3.958 -0.3181 -0.0863 -0.2543
 3243SOL    HW111179   5.566   3.984   3.940 -0.5579 -0.6210 -0.1581
 3243SOL    HW211180   5.711   3.996   3.898 -0.6389  0.4430 -0.1446
 3244SOL     OW11181   1.457   0.691   5.909 -0.2210  0.3611  0.5656
 3244SOL    HW111182   1.427   0.682   5.819  0.3131  0.3844  0.3842
 3244SOL    HW211183   1.503   0.775   5.910  0.9370 -0.2603  0.5335
 3245SOL     OW11184   3.857   4.316   3.419 -0.8567  0.4166  0.0732
 3245SOL    HW111185   3.888   4.226   3.430 -0.3738  0.7197  1.3743
 3245SOL    HW211186   3.874   4.358   3.504  1.2703  2.4397 -1.2197
 3246SOL     OW11187   0.401   3.583   2.108 -0.1556 -0.3055 -0.2029
 3246SOL    HW111188   0.348   3.609   2.183  0.7065  0.7102  0.0845
 3246SOL    HW211189   0.348   3.517   2.063 -0.8510 -0.6742  1.0825
 3247SOL     OW11190   5.779   4.771   5.326  0.5037  0.1064 -0.6979
 3247SOL    HW111191   5.754   4.765   5.234  1.4878 -1.3405 -0.9131
 3247SOL    HW211192   5.866   4.810   5.325  0.6911 -0.2982 -0.4246
 3248SOL     OW11193   1.392   0.851   5.359 -0.0320  0.0431 -0.1864
 3248SOL    HW111194   1.482   0.881   5.369 -0.0917  0.2228 -0.1724
 3248SOL    HW211195   1.344   0.899   5.427 -0.1342 -0.0662 -0.1816
 3249SOL     OW11196   6.045   7.098   6.400  0.2388  0.2895 -0.1249
 3249SOL    HW111197   6.045   7.068   6.309 -4.6097  1.0489 -0.6172
 3249SOL    HW211198   6.071   7.190   6.395  1.3226 -0.0092 -0.4534
 3250SOL     OW11199   2.323   0.716   6.636 -0.3769 -0.1908  0.8469
 3250SOL    HW111200   2.287   0.641   6.683 -0.6499 -0.7145 -0.1675
 3250SOL    HW211201   2.355   0.680   6.553  1.8135  0.3853  1.3753
 3251SOL     OW11202   0.505   0.327   4.667 -0.0014 -0.4507  0.1383
 3251SOL    HW111203   0.513   0.413   4.625  2.0895 -1.7405 -2.3993
 3251SOL    HW211204   0.412   0.304   4.658 -0.0556  0.3466 -1.8215
 3252SOL     OW11205   1.769   0.196   0.474  0.2495  0.0324 -0.4777
 3252SOL    HW111206   1.808   0.260   0.415  0.7141  0.4833  0.3108
 3252SOL    HW211207   1.842   0.163   0.526 -0.2925  0.2844  0.4534
 3253SOL     OW11208   3.303   6.505   5.484 -0.9454  0.0855  0.2251
 3253SOL    HW111209   3.283   6.423   5.438  1.7385 -0.9034  0.6039
 3253SOL    HW211210   3.257   6.498   5.567 -2.5823  0.0345 -0.6564
 3254SOL     OW11211   0.014   0.895   3.517  0.3359  0.4534 -0.5684
 3254SOL    HW111212   0.104   0.880   3.547 -0.6236  0.5819  2.7037
 3254SOL    HW211213  -0.002   0.987   3.534 -0.7582  0.1775  0.0144
 3255SOL     OW11214   2.550   2.860   5.132  0.2765  0.2637 -0.2239
 3255SOL    HW111215   2.482   2.916   5.093 -0.3288  0.0949  0.5588
 3255SOL    HW211216   2.536   2.868   5.226  0.8105 -0.4427 -0.0800
 3256SOL     OW11217   0.645   3.452   5.414  0.4166  0.0521 -0.0524
 3256SOL    HW111218   0.732   3.413   5.409  0.8355  1.0090 -0.3583
 3256SOL    HW211219   0.599   3.399   5.479  1.9612  0.9435  1.8525
 3257SOL     OW11220   1.602   3.610   2.656 -0.0323  0.0927  0.0583
 3257SOL    HW111221   1.555   3.635   2.736 -0.6624 -0.3291 -0.1744
 3257SOL    HW211222   1.686   3.655   2.663 -0.4144  0.7548  0.5513
 3258SOL     OW11223   5.225   6.370   4.755 -0.2683  0.0774 -0.2840
 3258SOL    HW111224   5.223   6.463   4.778  2.2641 -0.0235  0.6368
 3258SOL    HW211225   5.278   6.365   4.676  0.5422 -0.6624  0.2887
 3259SOL     OW11226   5.989   4.508   4.639  0.6769  0.2601  0.0495
 3259SOL    HW111227   6.013   4.590   4.682  0.9266  0.0833  0.2488
 3259SOL    HW211228   5.962   4.535   4.550  0.3919  0.5967  0.2327
 3260SOL     OW11229   3.505   1.479   0.170 -0.5792 -0.1016  0.4630
 3260SOL    HW111230   3.509   1.422   0.093  0.3982  0.3106  0.1966
 3260SOL    HW211231   3.420   1.522   0.164  0.2776  1.4530 -1.5010
 3261SOL     OW11232   5.804   7.103   0.451 -0.4546 -0.0784 -0.5112
 3261SOL    HW111233   5.863   7.133   0.520 -2.0451  0.3804  0.7058
 3261SOL    HW211234   5.789   7.181   0.397  1.4524 -0.6357 -1.9420
 3262SOL     OW11235   4.454   6.438   5.753  0.5561  0.2313  0.2448
 3262SOL    HW111236   4.453   6.389   5.835  0.5926 -1.0444 -0.4830
 3262SOL    HW211237   4.529   6.403   5.705 -1.3801 -1.5817 -1.7397
 3263SOL     OW11238   1.405   2.709   4.655 -0.0505 -0.3426 -0.1103
 3263SOL    HW111239   1.492   2.669   4.654 -0.2799 -0.8770 -1.5944
 3263SOL    HW211240   1.346   2.638   4.631 -1.0118 -0.1577  1.5287
 3264SOL     OW11241   2.091   4.977   5.264  0.3905 -0.0588 -0.3180
 3264SOL    HW111242   2.160   4.941   5.320  2.2719  1.5907 -1.4024
 3264SOL    HW211243   2.017   4.990   5.322  1.4831 -0.5349  1.2651
 3265SOL     OW11244   6.316   6.122   4.724 -0.1404 -0.3913  0.3790
 3265SOL    HW111245   6.394   6.129   4.778  0.2007 -1.4556  0.0447
 3265SOL    HW211246   6.246   6.160   4.777  0.6653  0.9296  0.5208
 3266SOL     OW11247   0.740   4.513   4.333 -0.6671  0.9543 -0.2105
 3266SOL    HW111248   0.655   4.523   4.376 -0.4519  1.0095  0.2136
 3266SOL    HW211249   0.732   4.564   4.252 -1.0935  0.8156 -0.2556
 3267SOL     OW11250   4.580   6.524   4.569  0.1141 -0.6404 -0.7255
 3267SOL    HW111251   4.562   6.446   4.518  0.3622 -1.9126  1.0233
 3267SOL    HW211252   4.606   6.590   4.505 -0.7006 -1.7899 -2.3048
 3268SOL     OW11253   2.378   1.793   2.468 -0.0388 -0.0578 -0.7087
 3268SOL    HW111254   2.446   1.855   2.495 -2.5774  2.1261  1.2323
 3268SOL    HW211255   2.381   1.723   2.532 -1.6889  1.7798  1.5773
 3269SOL     OW11256   6.353   2.653   6.043  0.5595  0.1461  0.5275
 3269SOL    HW111257   6.397   2.693   5.968 -0.7081 -1.3270 -1.1137
 3269SOL    HW211258   6.393   2.567   6.051 -0.7186 -0.5227  0.1329
 3270SOL     OW11259   6.739   3.623   0.496  0.3180 -0.0795 -0.1672
 3270SOL    HW111260   6.828   3.609   0.528 -0.0128 -0.2181  0.7267
 3270SOL    HW211261   6.733   3.717   0.479  0.7243 -0.1164 -0.5246
 3271SOL     OW11262   3.633   3.360   4.796  0.0214 -0.1045  0.3189
 3271SOL    HW111263   3.554   3.313   4.768 -1.4790  2.1166  0.5972
 3271SOL    HW211264   3.610   3.394   4.882  1.6001 -0.0773  0.7422
 3272SOL     OW11265   3.944   4.383   2.633 -0.6765  0.0218  0.2061
 3272SOL    HW111266   4.006   4.455   2.638  0.9282 -1.3403  0.6912
 3272SOL    HW211267   3.931   4.369   2.539 -0.9815  0.9082  0.1106
 3273SOL     OW11268   2.250   0.718   4.983  0.1847 -0.3152  0.2734
 3273SOL    HW111269   2.295   0.802   4.989  0.7835 -0.6399  0.4497
 3273SOL    HW211270   2.160   0.736   5.009  0.0526  0.4659 -0.6658
 3274SOL     OW11271   5.794   5.503   3.595  0.0516 -0.0535  0.2718
 3274SOL    HW111272   5.700   5.498   3.611  0.0392  0.0513  0.2371
 3274SOL    HW211273   5.834   5.508   3.682 -0.0120  0.4779  0.2741
 3275SOL     OW11274   7.135   4.338   2.848  0.2377 -0.4751  0.0593
 3275SOL    HW111275   7.146   4.405   2.781 -4.5681 -0.0925 -0.6426
 3275SOL    HW211276   7.124   4.256   2.799  2.4303 -1.2790  0.7690
 3276SOL     OW11277   0.346   6.641   3.018 -0.0752 -0.4008 -0.5248
 3276SOL    HW111278   0.433   6.618   2.985  1.1451 -0.4908  2.4594
 3276SOL    HW211279   0.347   6.736   3.023  0.3292 -0.4502  0.5923
 3277SOL     OW11280   2.646   6.055   0.853 -0.2464  0.3541 -0.1392
 3277SOL    HW111281   2.717   6.023   0.796 -1.1173  0.2462 -1.1997
 3277SOL    HW211282   2.590   5.979   0.866 -0.3761  0.5379  0.3684
 3278SOL     OW11283   2.583   1.920   3.704  0.5012  0.1044  0.1310
 3278SOL    HW111284   2.567   2.009   3.673  1.3910  0.4868  0.7189
 3278SOL    HW211285   2.535   1.864   3.643  0.2100  0.9637 -0.4460
 3279SOL     OW11286   3.730   1.909   0.770 -0.0260 -0.0296 -0.0110
 3279SOL    HW111287   3.805   1.873   0.816  0.5750  1.4675  0.2349
 3279SOL    HW211288   3.699   1.980   0.826 -0.0204  1.0503 -1.3229
 3280SOL     OW11289   0.223   5.239   6.098 -0.2393  0.2300 -0.4413
 3280SOL    HW111290   0.299   5.282   6.059 -2.0098  2.6427 -1.5396
 3280SOL    HW211291   0.173   5.206   6.024 -1.3590  0.7024  0.0785
 3281SOL     OW11292   6.209   6.514   2.567  0.5508 -0.4397 -0.1188
 3281SOL    HW111293   6.135   6.569   2.591  0.4135  0.4201 -2.2999
 3281SOL    HW211294   6.176   6.425   2.576 -0.5591 -0.0832 -0.4610
 3282SOL     OW11295   6.728   1.385   6.932  0.5077  0.3545 -0.0341
 3282SOL    HW111296   6.809   1.435   6.932  0.4935  0.3809 -0.2497
 3282SOL    HW211297   6.723   1.346   7.019 -0.1153  1.7404  0.5759
 3283SOL     OW11298   5.782   0.548   2.922 -0.0652  0.2297  0.2619
 3283SOL    HW111299   5.700   0.559   2.874 -0.5434 -0.0235  1.0092
 3283SOL    HW211300   5.779   0.615   2.990 -0.0028 -0.2693  0.7651
 3284SOL     OW11301   3.700   2.712   2.404 -0.2274 -0.1899 -0.1876
 3284SOL    HW111302   3.618   2.663   2.409  1.1525 -2.5742  0.8418
 3284SOL    HW211303   3.730   2.698   2.314  0.4481 -1.9066  0.2496
 3285SOL     OW11304   4.995   2.376   2.597 -0.2960 -0.5213  0.6069
 3285SOL    HW111305   4.930   2.377   2.527  0.1553  1.4583  0.1612
 3285SOL    HW211306   4.972   2.451   2.652  0.4215 -0.9991  1.5751
 3286SOL     OW11307   0.762   2.009   5.372 -0.5032  0.6794  0.1519
 3286SOL    HW111308   0.781   2.047   5.286  0.4287 -1.3392 -0.6066
 3286SOL    HW211309   0.668   2.021   5.384 -0.9038 -0.1198 -1.7798
 3287SOL     OW11310   0.839   3.549   7.057 -0.1496 -0.5846 -0.5797
 3287SOL    HW111311   0.763   3.606   7.041  0.6094  0.8731  0.7156
 3287SOL    HW211312   0.883   3.544   6.973 -0.4453  0.4667 -0.8195
 3288SOL     OW11313   1.542   3.523   2.357 -0.2946  0.1050 -0.0454
 3288SOL    HW111314   1.501   3.442   2.387 -0.1785 -0.1750 -0.6357
 3288SOL    HW211315   1.501   3.541   2.272 -0.3676  0.7056  0.1081
 3289SOL     OW11316   5.585   3.497   1.192 -0.4378 -0.2150 -0.5224
 3289SOL    HW111317   5.629   3.570   1.235 -0.4161 -1.2078  1.2148
 3289SOL    HW211318   5.514   3.538   1.142 -2.0302  0.8659  2.4151
 3290SOL     OW11319   3.582   4.945   6.594  0.3413 -0.2392  0.1881
 3290SOL    HW111320   3.531   4.905   6.523 -0.5094 -1.5487  1.4941
 3290SOL    HW211321   3.671   4.949   6.559 -0.0989 -0.6115 -1.0422
 3291SOL     OW11322   5.252   5.977   5.070 -0.0333 -0.3114 -0.1612
 3291SOL    HW111323   5.322   5.990   5.134 -0.6003 -0.9002  0.5897
 3291SOL    HW211324   5.225   6.066   5.046  0.0793 -0.0868  0.5249
 3292SOL     OW11325   2.882   6.215   0.393 -0.0781  0.3189 -0.0369
 3292SOL    HW111326   2.803   6.162   0.406  0.7602 -0.9594 -0.0143
 3292SOL    HW211327   2.915   6.188   0.308 -0.0171  1.3344 -0.3437
 3293SOL     OW11328   6.683   2.876   6.737  0.8192 -0.7718 -0.2773
 3293SOL    HW111329   6.613   2.825   6.778  0.4695 -0.4878 -0.5153
 3293SOL    HW211330   6.641   2.958   6.710  1.0233 -0.9849 -1.2803
 3294SOL     OW11331   6.653   4.127   4.722 -0.7014  0.1144  0.3121
 3294SOL    HW111332   6.697   4.054   4.765 -0.0785 -0.4578 -1.2185
 3294SOL    HW211333   6.678   4.119   4.630 -0.8525  2.0917  0.0515
 3295SOL     OW11334   0.908   5.013   4.999  0.0727  0.3994 -0.2585
 3295SOL    HW111335   0.930   4.942   4.939  0.7634  0.3108  0.0936
 3295SOL    HW211336   0.874   4.970   5.077 -0.0456  0.4794 -0.2652
 3296SOL     OW11337   2.590   2.124   3.394  0.0792  0.1631 -0.6628
 3296SOL    HW111338   2.579   2.204   3.446 -0.2754  0.3474 -1.0192
 3296SOL    HW211339   2.617   2.155   3.308 -0.7399 -0.0558 -1.0065
 3297SOL     OW11340   0.093   0.561   4.870 -0.4728  0.1936 -0.0317
 3297SOL    HW111341   0.080   0.468   4.853 -1.1329  0.6650 -2.4186
 3297SOL    HW211342   0.009   0.593   4.901 -0.0384 -0.1110  1.5478
 3298SOL     OW11343   2.778   4.702   0.397 -0.1229  0.1950 -0.0329
 3298SOL    HW111344   2.740   4.759   0.464 -1.0953 -0.7105  0.2144
 3298SOL    HW211345   2.801   4.762   0.325  1.6293  1.2923  1.3466
 3299SOL     OW11346   2.802   4.873   2.713 -0.1419  0.1018 -0.0282
 3299SOL    HW111347   2.761   4.792   2.683  0.9513 -0.6544  0.4561
 3299SOL    HW211348   2.733   4.919   2.761 -0.7205 -0.6216 -0.1552
 3300SOL     OW11349   3.179   6.083   2.868 -0.1805  0.3340  0.6264
 3300SOL    HW111350   3.173   5.992   2.897  1.0729  0.0515  0.0625
 3300SOL    HW211351   3.088   6.111   2.859 -0.5879 -0.7082  1.2601
 3301SOL     OW11352   5.905   1.294   6.824 -0.1735  0.2050  0.4964
 3301SOL    HW111353   5.930   1.211   6.865 -1.3482 -0.3828  0.0655
 3301SOL    HW211354   5.944   1.361   6.881  1.1979 -0.6265  0.5783
 3302SOL     OW11355   5.342   4.184   4.333  0.1249  0.2756  0.3512
 3302SOL    HW111356   5.400   4.202   4.259 -0.3797  0.9340  0.0994
 3302SOL    HW211357   5.255   4.176   4.294  0.2523 -2.8202  0.4293
 3303SOL     OW11358   2.580   1.367   5.494  0.1926 -0.3849  0.5314
 3303SOL    HW111359   2.525   1.315   5.553 -0.5308  0.2127  0.4054
 3303SOL    HW211360   2.622   1.432   5.550 -0.1094 -0.1315  0.4675
 3304SOL     OW11361   1.242   4.593   0.969 -0.8410 -0.0956 -0.4745
 3304SOL    HW111362   1.312   4.588   1.034 -1.1751 -1.0859 -0.1714
 3304SOL    HW211363   1.185   4.663   0.999 -0.2895  0.3431 -0.4234
 3305SOL     OW11364   4.782   5.521   4.267  0.0396  0.1865 -0.4115
 3305SOL    HW111365   4.803   5.467   4.344  0.9421 -0.7960 -1.3112
 3305SOL    HW211366   4.771   5.609   4.302 -1.2135 -0.5025  1.0769
 3306SOL     OW11367   0.815   4.903   2.575  0.5700 -0.2024 -0.2445
 3306SOL    HW111368   0.830   4.880   2.667 -0.0681 -1.3001 -0.3983
 3306SOL    HW211369   0.903   4.906   2.536  0.7373 -1.7421 -0.0492
 3307SOL     OW11370   1.957   5.984   5.096  0.0649 -0.1263  0.8901
 3307SOL    HW111371   1.921   6.032   5.170 -0.4681 -1.7648  1.7372
 3307SOL    HW211372   1.962   5.893   5.126 -0.0489 -0.8121 -1.0267
 3308SOL     OW11373   3.081   6.332   2.235  0.4573  0.4435  0.0487
 3308SOL    HW111374   3.000   6.280   2.231 -0.1855  1.3889  0.2703
 3308SOL    HW211375   3.151   6.270   2.216 -0.2806 -0.5052  0.3547
 3309SOL     OW11376   1.224   6.542   3.455  0.4845  0.1841 -0.3440
 3309SOL    HW111377   1.236   6.571   3.365  1.3654  0.4041 -0.1704
 3309SOL    HW211378   1.229   6.623   3.507  1.1923 -0.0733 -0.0019
 3310SOL     OW11379   2.783   1.153   0.530 -0.6067 -0.2325  0.3411
 3310SOL    HW111380   2.795   1.248   0.520 -0.9606 -0.2089  0.1117
 3310SOL    HW211381   2.700   1.144   0.577 -0.2530 -0.4149  0.9384
 3311SOL     OW11382   1.604   1.296   1.039 -0.4863  0.2660 -0.5162
 3311SOL    HW111383   1.559   1.263   0.961  0.2634 -1.1194 -0.3899
 3311SOL    HW211384   1.536   1.301   1.106 -1.3277  2.2659 -1.4198
 3312SOL     OW11385   1.931   6.989   5.170 -0.8344 -0.1107 -0.1467
 3312SOL    HW111386   1.883   6.907   5.163 -0.5414 -0.1677 -2.7991
 3312SOL    HW211387   1.947   7.014   5.079  2.7454  0.7091  0.5623
 3313SOL     OW11388   5.932   1.368   0.153 -0.3869 -0.0425 -0.5137
 3313SOL    HW111389   5.934   1.399   0.062 -1.4413 -0.5816 -0.7385
 3313SOL    HW211390   5.841   1.342   0.167 -0.7424  1.9978  1.3751
 3314SOL     OW11391   0.552   7.006   1.531  0.6158 -0.0098 -0.1704
 3314SOL    HW111392   0.561   7.095   1.499  2.5194 -0.2713 -0.4371
 3314SOL    HW211393   0.572   6.950   1.456 -1.1444 -0.7225 -0.1793
 3315SOL     OW11394   0.197   6.571   4.318 -0.7465 -0.8409 -0.4087
 3315SOL    HW111395   0.227   6.618   4.241  0.2117 -0.9035 -0.0852
 3315SOL    HW211396   0.131   6.628   4.357  1.2030  0.8601  0.6377
 3316SOL     OW11397   6.860   6.893   1.622  0.3391  0.0883  0.4060
 3316SOL    HW111398   6.924   6.963   1.614 -1.8901  1.9922 -2.8898
 3316SOL    HW211399   6.885   6.830   1.555 -0.3165  0.0339  0.2117
 3317SOL     OW11400   5.305   3.664   4.755  0.0222 -0.5560 -0.1913
 3317SOL    HW111401   5.347   3.748   4.738  1.1351 -0.8764  0.8385
 3317SOL    HW211402   5.253   3.678   4.835 -0.8968 -0.4906 -0.7835
 3318SOL     OW11403   2.288   4.199   6.899 -0.4078 -0.2433  0.3540
 3318SOL    HW111404   2.303   4.147   6.820  1.9091 -0.7606  1.0559
 3318SOL    HW211405   2.274   4.288   6.867 -1.8223 -0.8184 -0.7282
 3319SOL     OW11406   1.314   3.653   2.571  0.1638 -0.1412 -0.7121
 3319SOL    HW111407   1.291   3.565   2.600 -0.4200  0.2273 -0.0097
 3319SOL    HW211408   1.400   3.644   2.531  0.3061 -0.9484 -0.2426
 3320SOL     OW11409   3.112   5.835   4.662  0.2746  0.1923  0.2784
 3320SOL    HW111410   3.043   5.897   4.686  0.4889  0.6842 -0.3402
 3320SOL    HW211411   3.193   5.877   4.692  0.3126 -0.3511  0.9413
 3321SOL     OW11412   1.797   0.028   3.761 -0.2935 -0.1267  0.1022
 3321SOL    HW111413   1.785   0.051   3.853 -0.6055  0.8843 -0.1752
 3321SOL    HW211414   1.779  -0.066   3.757 -0.3172 -0.1727  1.0641
 3322SOL     OW11415   0.051   2.686   4.688 -0.4463 -0.8350 -0.1407
 3322SOL    HW111416   0.002   2.605   4.700 -1.3796 -0.4055 -0.8322
 3322SOL    HW211417   0.002   2.733   4.620 -0.6423  0.8360  1.0865
 3323SOL     OW11418   3.315   0.115   6.308  0.1303 -0.4059 -0.0804
 3323SOL    HW111419   3.317   0.070   6.224  0.6850 -0.8503  0.1675
 3323SOL    HW211420   3.226   0.101   6.340 -0.5558  1.0086 -1.2457
 3324SOL     OW11421   5.022   0.325   0.331  0.3525 -0.2417  0.0929
 3324SOL    HW111422   5.056   0.332   0.242 -1.0940 -1.4495 -0.6184
 3324SOL    HW211423   5.086   0.271   0.377 -0.2475 -2.0418 -1.0610
 3325SOL     OW11424   1.516   2.968   6.482  0.8280 -0.5612 -0.4501
 3325SOL    HW111425   1.491   2.890   6.530 -0.2948 -0.0854 -0.2360
 3325SOL    HW211426   1.520   2.940   6.391 -0.8635 -0.5858 -0.5419
 3326SOL     OW11427   3.558   4.510   1.476 -0.1330  0.0390  0.3343
 3326SOL    HW111428   3.581   4.559   1.555 -0.4317  0.0144  0.4388
 3326SOL    HW211429   3.491   4.448   1.505  0.8851 -1.0635  0.3996
 3327SOL     OW11430   4.758   4.707   1.185 -0.0078 -0.0143 -0.4212
 3327SOL    HW111431   4.676   4.662   1.167 -1.0986  1.7057  0.0663
 3327SOL    HW211432   4.740   4.760   1.262  1.5800  0.3741 -0.2903
 3328SOL     OW11433   2.372   4.138   5.615  0.2780  0.0802  0.2529
 3328SOL    HW111434   2.387   4.044   5.605  0.3663  0.2585 -1.6341
 3328SOL    HW211435   2.427   4.178   5.548 -0.6984  1.4059  0.2129
 3329SOL     OW11436   2.270   0.807   3.562  0.2464 -0.0254  0.3331
 3329SOL    HW111437   2.352   0.816   3.610  0.0482 -0.3096  0.7344
 3329SOL    HW211438   2.286   0.737   3.500  0.7789  0.9102 -0.6207
 3330SOL     OW11439   1.684   0.861   5.763 -0.0322 -0.1629 -0.1771
 3330SOL    HW111440   1.750   0.814   5.814  0.0267 -0.2553 -0.3387
 3330SOL    HW211441   1.716   0.951   5.760  0.1695 -0.2395 -0.3913
 3331SOL     OW11442   2.525   0.880   3.660 -0.4049  0.5788 -0.1072
 3331SOL    HW111443   2.583   0.858   3.733 -0.3564  0.1310 -0.2749
 3331SOL    HW211444   2.536   0.974   3.647 -1.2962  0.8852  1.2146
 3332SOL     OW11445   4.413   5.309   6.059 -0.2445 -0.8989 -0.2543
 3332SOL    HW111446   4.427   5.221   6.024  0.3603 -0.9263  0.0465
 3332SOL    HW211447   4.501   5.341   6.081 -0.4400 -0.1686 -0.4768
 3333SOL     OW11448   5.876   5.150   6.628  0.5398  0.4931 -0.0643
 3333SOL    HW111449   5.800   5.201   6.601  1.0222  2.5691  2.1426
 3333SOL    HW211450   5.951   5.206   6.610  1.1846  0.1976  1.5246
 3334SOL     OW11451   5.173   5.534   2.801 -0.1533 -0.0620 -0.6964
 3334SOL    HW111452   5.139   5.486   2.876  0.3998  0.0066 -0.3901
 3334SOL    HW211453   5.099   5.586   2.770 -0.3779 -0.0551 -0.1656
 3335SOL     OW11454   5.301   6.896   0.855 -0.4499 -0.3107 -0.0529
 3335SOL    HW111455   5.390   6.888   0.890 -0.9011 -1.7991  0.8919
 3335SOL    HW211456   5.298   6.982   0.814  1.6710 -0.5484 -0.8350
 3336SOL     OW11457   5.802   1.650   0.736  0.0383 -0.0334 -0.2827
 3336SOL    HW111458   5.717   1.695   0.740 -0.1488 -0.4797  1.4852
 3336SOL    HW211459   5.861   1.716   0.700 -0.8235  0.6790 -0.4449
 3337SOL     OW11460   0.037   3.524   0.949  0.3919  0.5248  0.0769
 3337SOL    HW111461   0.079   3.438   0.957 -1.8967 -0.6952 -0.3428
 3337SOL    HW211462  -0.043   3.517   1.000 -1.3130  1.3900 -2.3074
 3338SOL     OW11463   4.959   6.931   5.405 -0.5873 -0.3131 -0.5444
 3338SOL    HW111464   4.996   6.991   5.341 -1.0037  1.2233  0.5850
 3338SOL    HW211465   4.916   6.863   5.353  1.2131 -0.5097 -1.8576
 3339SOL     OW11466   0.881   0.551   4.695  0.5214  0.1525  0.8837
 3339SOL    HW111467   0.938   0.568   4.770  2.3296  1.3918 -0.6616
 3339SOL    HW211468   0.827   0.629   4.687  2.5503  1.4762 -0.8929
 3340SOL     OW11469   6.839   0.509   5.483 -0.4122  0.4106 -0.4645
 3340SOL    HW111470   6.804   0.485   5.568 -1.5224 -2.4480 -1.5929
 3340SOL    HW211471   6.933   0.521   5.498 -0.5398 -0.3061  1.1242
 3341SOL     OW11472   1.206   4.628   3.601 -0.0344 -0.1793 -0.1599
 3341SOL    HW111473   1.300   4.618   3.613 -0.0001 -0.0966 -0.3565
 3341SOL    HW211474   1.174   4.539   3.585 -0.0910 -0.3052  0.5940
 3342SOL     OW11475   1.591   2.305   1.736  0.3046  0.2923  0.2639
 3342SOL    HW111476   1.498   2.325   1.736  0.3104  0.3384 -0.4138
 3342SOL    HW211477   1.600   2.231   1.796 -0.1209  0.4797  0.5609
 3343SOL     OW11478   5.801   0.037   6.588 -0.2817 -0.3237  0.0295
 3343SOL    HW111479   5.884   0.022   6.632  0.2250 -1.3017 -1.2374
 3343SOL    HW211480   5.816   0.115   6.534 -0.0176 -0.7967 -0.5897
 3344SOL     OW11481   1.629   2.356   6.495 -0.1741 -0.5134 -0.5409
 3344SOL    HW111482   1.585   2.296   6.555 -0.5325  0.3417  0.0744
 3344SOL    HW211483   1.721   2.348   6.517 -0.1870 -1.0406 -0.6570
 3345SOL     OW11484   3.826   4.485   4.425 -0.3152  0.5713 -0.2547
 3345SOL    HW111485   3.736   4.453   4.430 -0.1688  0.1324 -0.3767
 3345SOL    HW211486   3.824   4.570   4.469 -0.0375 -1.0480  3.2115
 3346SOL     OW11487   4.642   4.480   4.378 -0.2946  0.1985  0.0939
 3346SOL    HW111488   4.561   4.515   4.343 -0.9415 -0.2627  1.0655
 3346SOL    HW211489   4.630   4.481   4.473  1.6833  2.1286  0.4014
 3347SOL     OW11490   5.918   1.302   1.420 -0.6425  0.5484 -0.2293
 3347SOL    HW111491   5.929   1.397   1.427  2.5771  0.1832  3.1439
 3347SOL    HW211492   5.839   1.283   1.472 -1.3435  1.3523 -0.9872
 3348SOL     OW11493   0.086   3.124   7.121 -0.2036 -0.0608 -0.5974
 3348SOL    HW111494   0.045   3.054   7.174 -0.3981  0.3220 -0.2304
 3348SOL    HW211495   0.052   3.110   7.033  0.9540 -1.3580 -0.8692
 3349SOL     OW11496   0.091   4.671   1.907 -0.1313  0.6489 -0.1975
 3349SOL    HW111497   0.129   4.594   1.866  1.3562  0.1899  1.8964
 3349SOL    HW211498   0.131   4.675   1.994  0.6628  4.3493 -0.5451
 3350SOL     OW11499   3.172   0.789   5.953  0.5643 -0.1610  0.1371
 3350SOL    HW111500   3.266   0.805   5.946  0.7000 -0.9373  0.0104
 3350SOL    HW211501   3.131   0.875   5.947  1.1654  0.0269 -1.6227
 3351SOL     OW11502   6.785   0.853   4.646 -0.2613  0.0773 -0.3847
 3351SOL    HW111503   6.811   0.905   4.722 -0.8663  0.4139 -0.3984
 3351SOL    HW211504   6.700   0.816   4.671  0.2943 -1.1536 -0.2608
 3352SOL     OW11505   2.728   3.633   6.591 -0.3523  0.5136 -0.3269
 3352SOL    HW111506   2.696   3.601   6.675  1.3927 -1.8783 -0.4708
 3352SOL    HW211507   2.747   3.554   6.540 -0.0775  1.8776 -2.4807
 3353SOL     OW11508   4.239   1.410   1.381 -0.2727 -0.4982  0.4076
 3353SOL    HW111509   4.332   1.435   1.387 -0.2373 -0.5321  0.0430
 3353SOL    HW211510   4.203   1.431   1.467 -0.5066  1.9402 -0.2166
 3354SOL     OW11511   6.270   3.905   3.195  0.2740  0.4603  0.1737
 3354SOL    HW111512   6.277   3.963   3.119 -0.6435  0.3615  0.0048
 3354SOL    HW211513   6.279   3.817   3.159  0.5181  0.4402  0.2783
 3355SOL     OW11514   0.220   0.700   6.548  0.3134 -0.6616 -0.0431
 3355SOL    HW111515   0.172   0.669   6.470  1.2853 -1.7952 -0.2213
 3355SOL    HW211516   0.310   0.670   6.533  1.5294  2.7949 -0.5018
 3356SOL     OW11517   3.119   4.407   2.941  0.7111 -0.1126 -0.3959
 3356SOL    HW111518   3.141   4.330   2.889  0.9583  0.9367 -1.9053
 3356SOL    HW211519   3.134   4.481   2.883  0.9106  1.1304  1.1533
 3357SOL     OW11520   3.115   0.123   2.129 -0.5592 -0.0068 -0.2059
 3357SOL    HW111521   3.128   0.177   2.208 -2.2665 -0.3471  0.3690
 3357SOL    HW211522   3.021   0.132   2.111 -1.0775 -3.2591  0.3069
 3358SOL     OW11523   5.792   5.134   1.068  0.4079 -0.3859  0.3100
 3358SOL    HW111524   5.795   5.190   1.146 -0.3404 -1.1268  0.8955
 3358SOL    HW211525   5.868   5.077   1.077 -0.0059 -0.8712  0.8263
 3359SOL     OW11526   7.010   0.690   0.523 -0.1107 -0.5222 -0.6169
 3359SOL    HW111527   6.925   0.647   0.515 -0.1456 -0.4812 -0.4683
 3359SOL    HW211528   7.058   0.663   0.445  0.0080 -1.1446 -0.3333
 3360SOL     OW11529   5.261   1.179   2.255 -0.2159  0.4933 -0.0766
 3360SOL    HW111530   5.320   1.104   2.270 -0.6752  0.3431  1.0333
 3360SOL    HW211531   5.317   1.245   2.213 -0.0834 -0.8828 -2.2675
 3361SOL     OW11532   0.489   2.608   6.031 -0.0512  0.1281 -0.3019
 3361SOL    HW111533   0.576   2.635   6.060  0.4127 -3.3300  2.1508
 3361SOL    HW211534   0.430   2.649   6.094  0.3658 -1.5516  1.2977
 3362SOL     OW11535   4.849   5.680   3.278  0.1727  0.0595  0.0910
 3362SOL    HW111536   4.931   5.632   3.278 -0.2655 -0.7905  2.3023
 3362SOL    HW211537   4.782   5.614   3.258 -0.1802  0.2875  0.4938
 3363SOL     OW11538   0.206   1.678   7.106  0.0960 -0.0737 -0.0684
 3363SOL    HW111539   0.252   1.662   7.188 -1.2748  0.1100  0.7573
 3363SOL    HW211540   0.216   1.772   7.090  1.4493 -0.3081 -0.8201
 3364SOL     OW11541   4.249   0.152   1.145  0.7216 -0.0678 -0.0819
 3364SOL    HW111542   4.299   0.099   1.207 -0.0887 -1.2808 -0.4155
 3364SOL    HW211543   4.278   0.120   1.059 -0.6850 -0.8922 -0.2760
 3365SOL     OW11544   6.597   1.675   5.680 -0.1378  0.4867  0.1552
 3365SOL    HW111545   6.673   1.693   5.736  0.3354  0.1169 -0.3602
 3365SOL    HW211546   6.563   1.592   5.711  1.4618 -0.8751 -1.4868
 3366SOL     OW11547   1.522   5.184   5.696  0.0071  0.2639 -0.0199
 3366SOL    HW111548   1.487   5.156   5.611  2.6202  1.6118 -1.6631
 3366SOL    HW211549   1.509   5.279   5.698  1.0494  0.4076  0.5404
 3367SOL     OW11550   5.204   0.347   0.134 -0.7555 -0.0937 -0.1310
 3367SOL    HW111551   5.242   0.432   0.113 -0.0304 -0.3827 -0.0449
 3367SOL    HW211552   5.218   0.295   0.055  0.9541 -0.8378  0.5944
 3368SOL     OW11553   3.014   5.237   3.861 -0.2212 -0.1327  0.5206
 3368SOL    HW111554   3.045   5.318   3.901  0.0700  0.1474 -0.2544
 3368SOL    HW211555   2.950   5.203   3.923 -0.9243  1.0911  0.5174
 3369SOL     OW11556   3.909   0.964   4.879 -0.0889 -0.1438 -0.1314
 3369SOL    HW111557   3.935   0.894   4.819  2.3537  1.4124 -1.0236
 3369SOL    HW211558   3.819   0.986   4.854 -1.4431 -3.6985  0.9954
 3370SOL     OW11559   1.455   4.621   3.183  1.0115  0.7825  0.1106
 3370SOL    HW111560   1.456   4.690   3.248 -0.6136  0.2689  0.7161
 3370SOL    HW211561   1.468   4.666   3.099 -2.9063  2.2781  0.1391
 3371SOL     OW11562   1.233   1.029   2.145  0.0454  0.1941  0.8246
 3371SOL    HW111563   1.312   1.047   2.194 -0.0118 -0.0546  1.0121
 3371SOL    HW211564   1.167   1.089   2.181  0.4159  1.1527 -0.0583
 3372SOL     OW11565   4.840   6.934   3.141  0.7294 -0.3638 -0.9897
 3372SOL    HW111566   4.913   6.923   3.080 -0.0491 -0.4150 -1.9371
 3372SOL    HW211567   4.821   6.845   3.172  0.8351 -0.3932 -1.0066
 3373SOL     OW11568   5.783   4.327   5.374  0.0143  1.0580  0.2452
 3373SOL    HW111569   5.774   4.246   5.324  0.1035  1.1103  0.1454
 3373SOL    HW211570   5.822   4.300   5.457  0.7437  1.1046 -0.0788
 3374SOL     OW11571   2.419   5.762   2.669  0.2601 -0.1169 -0.1908
 3374SOL    HW111572   2.387   5.681   2.709 -1.0066  0.6070  0.3165
 3374SOL    HW211573   2.481   5.798   2.732 -0.9236  0.4723  0.6644
 3375SOL     OW11574   4.654   6.947   1.058 -0.0175  0.5501  0.2577
 3375SOL    HW111575   4.688   7.036   1.066  0.2432  0.4599  0.1548
 3375SOL    HW211576   4.732   6.893   1.043 -0.2223  0.3677 -0.1630
 3376SOL     OW11577   0.716   4.100   3.822 -0.8306  0.1181  0.0186
 3376SOL    HW111578   0.773   4.164   3.780 -0.1578  0.3230  1.2185
 3376SOL    HW211579   0.642   4.092   3.762  0.1884  0.2502 -1.2952
 3377SOL     OW11580   0.108   6.275   3.662 -0.5680 -0.0111 -0.4275
 3377SOL    HW111581   0.038   6.233   3.612  1.2354 -1.4111 -1.9058
 3377SOL    HW211582   0.097   6.241   3.751 -1.5302 -0.4890 -0.7074
 3378SOL     OW11583   6.189   1.568   4.671 -0.0096  0.3035  0.1317
 3378SOL    HW111584   6.284   1.576   4.671  0.0239  0.3182  2.0100
 3378SOL    HW211585   6.170   1.502   4.737 -1.2914 -0.0491 -0.5504
 3379SOL     OW11586   2.634   5.013   1.948 -0.0392  0.3678 -0.5536
 3379SOL    HW111587   2.678   5.070   2.011 -1.1890  0.0098  0.6095
 3379SOL    HW211588   2.703   4.988   1.886  1.2731  0.2656  0.8902
 3380SOL     OW11589   3.169   3.044   1.814  0.1898  0.2258 -0.1809
 3380SOL    HW111590   3.130   3.069   1.730  0.8589  0.2236 -0.5026
 3380SOL    HW211591   3.251   3.001   1.790 -0.2452 -0.9883  0.4137
 3381SOL     OW11592   2.228   2.188   3.166 -0.2768 -0.1112  0.6777
 3381SOL    HW111593   2.197   2.171   3.255  0.6058  1.4537  1.3134
 3381SOL    HW211594   2.313   2.230   3.177 -0.0613 -0.0530 -0.9131
 3382SOL     OW11595   5.428   4.719   1.166 -0.3077 -0.1858  0.0580
 3382SOL    HW111596   5.420   4.785   1.096 -0.8703  0.6068  0.8510
 3382SOL    HW211597   5.394   4.763   1.244 -0.4850 -1.3530  0.6537
 3383SOL     OW11598   0.728   0.630   5.287 -0.4713  0.5650 -0.1605
 3383SOL    HW111599   0.691   0.559   5.341 -1.7497  0.4761 -1.1096
 3383SOL    HW211600   0.760   0.694   5.351  0.9617 -0.9433  0.7347
 3384SOL     OW11601   1.479   2.433   0.825  0.8680 -0.0180  0.0808
 3384SOL    HW111602   1.444   2.433   0.914 -0.8777 -0.8910 -0.5753
 3384SOL    HW211603   1.506   2.342   0.809  1.3505  0.1715 -0.2322
 3385SOL     OW11604   2.911   1.468   0.539 -0.3901 -0.2923  0.1657
 3385SOL    HW111605   2.971   1.461   0.465  0.7530 -1.5395  1.1702
 3385SOL    HW211606   2.827   1.490   0.499  0.2608 -0.6214 -1.4635
 3386SOL     OW11607   5.438   1.050   5.247  0.6413 -0.4417 -0.3503
 3386SOL    HW111608   5.403   1.053   5.336  1.3684  0.9969 -0.0778
 3386SOL    HW211609   5.418   0.962   5.216 -1.8673 -0.1792  0.3104
 3387SOL     OW11610   2.403   4.245   0.862 -0.4303 -0.3504 -0.0201
 3387SOL    HW111611   2.443   4.258   0.776  0.6599  0.5300  0.5995
 3387SOL    HW211612   2.395   4.150   0.870 -1.0123 -0.4368 -1.2849
 3388SOL     OW11613   2.562   6.909   0.617  0.5631  0.0955  0.1221
 3388SOL    HW111614   2.617   6.976   0.577 -1.1278  0.9736 -0.8348
 3388SOL    HW211615   2.624   6.842   0.647  2.0750  0.1907 -2.4501
 3389SOL     OW11616   5.459   0.517   6.936 -0.6776 -0.3614  0.0056
 3389SOL    HW111617   5.389   0.453   6.925 -1.7826  0.9881 -1.1726
 3389SOL    HW211618   5.425   0.597   6.896  1.5946  0.3172 -0.7202
 3390SOL     OW11619   0.229   4.401   3.744  0.4396 -0.1987  0.1789
 3390SOL    HW111620   0.301   4.343   3.719  1.4286  1.9764 -2.5359
 3390SOL    HW211621   0.268   4.461   3.807  1.9947  2.5686 -3.1117
 3391SOL     OW11622   3.591   3.806   3.291  0.7158 -0.0295 -0.0384
 3391SOL    HW111623   3.515   3.792   3.348 -0.1261  0.5425 -1.0032
 3391SOL    HW211624   3.661   3.833   3.351 -0.0226  0.0986  0.7842
 3392SOL     OW11625   0.717   5.167   5.565  0.4076  0.3633  0.3827
 3392SOL    HW111626   0.630   5.142   5.533  0.5097 -0.6346  0.8617
 3392SOL    HW211627   0.759   5.208   5.489 -0.4369  0.7602  0.1143
 3393SOL     OW11628   2.219   4.697   0.054 -0.0409 -0.0813 -0.0275
 3393SOL    HW111629   2.230   4.666  -0.036  1.0215  1.6524 -0.5238
 3393SOL    HW211630   2.158   4.770   0.047 -2.5025 -1.8561  1.1344
 3394SOL     OW11631   5.763   0.920   0.759  0.0650 -0.4098  0.5119
 3394SOL    HW111632   5.814   0.994   0.791  0.5154 -1.0661  1.3694
 3394SOL    HW211633   5.724   0.951   0.678 -0.8541  1.2172  1.5098
 3395SOL     OW11634   5.671   2.947   0.144 -0.6224 -0.0326 -0.0531
 3395SOL    HW111635   5.634   2.866   0.108 -3.3844  0.8570  0.5127
 3395SOL    HW211636   5.648   3.014   0.080  1.1316  0.4243 -0.2345
 3396SOL     OW11637   5.564   3.134   3.268  0.6299 -0.3882 -0.3717
 3396SOL    HW111638   5.513   3.213   3.286  1.5259 -0.0991  1.0598
 3396SOL    HW211639   5.510   3.084   3.208 -0.5077  0.7530 -0.3433
 3397SOL     OW11640   1.063   5.323   1.622  0.3352  0.0969 -0.6616
 3397SOL    HW111641   1.079   5.312   1.716  0.6318  1.0781 -0.5865
 3397SOL    HW211642   1.106   5.406   1.600 -1.9842  1.2749 -1.1123
 3398SOL     OW11643   6.053   6.288   2.554  0.2478  0.2904  0.4873
 3398SOL    HW111644   6.075   6.210   2.605 -0.6023  1.1038  2.1835
 3398SOL    HW211645   5.958   6.287   2.548  0.2092  1.3377  0.7751
 3399SOL     OW11646   4.471   6.946   0.015  0.0294 -0.1790  0.1611
 3399SOL    HW111647   4.465   6.928   0.109  1.3300  1.3274  0.5663
 3399SOL    HW211648   4.416   7.023   0.002  0.5189  0.1220 -0.1558
 3400SOL     OW11649   5.508   2.966   4.610  0.1791  0.4998 -0.4032
 3400SOL    HW111650   5.530   3.046   4.658  1.4380  0.3159 -0.6360
 3400SOL    HW211651   5.459   2.996   4.534  0.1499  1.0064 -0.1881
 3401SOL     OW11652   0.837   0.460   1.854 -0.3583 -0.3741  0.4423
 3401SOL    HW111653   0.869   0.460   1.944 -0.3915  0.9478  0.4874
 3401SOL    HW211654   0.903   0.509   1.806 -0.7845 -0.2956 -0.0699
 3402SOL     OW11655   4.283   5.421   2.952 -0.9333  0.4856  0.1179
 3402SOL    HW111656   4.273   5.499   2.898  0.3599 -0.6997 -1.9568
 3402SOL    HW211657   4.307   5.455   3.038 -1.6354  2.4022 -0.3938
 3403SOL     OW11658   1.730   2.268   7.092 -0.3264  0.0178  0.3439
 3403SOL    HW111659   1.692   2.241   7.008 -0.1569  0.5356  0.0960
 3403SOL    HW211660   1.709   2.197   7.152 -2.8965  0.8574  0.5708
 3404SOL     OW11661   6.356   6.032   0.264  0.6109 -0.3211 -0.4036
 3404SOL    HW111662   6.293   5.960   0.255 -0.8876  1.0262 -0.9556
 3404SOL    HW211663   6.388   6.023   0.354 -1.2750 -0.3478  0.3157
 3405SOL     OW11664   0.520   4.393   5.923  0.4132 -0.3678  0.2108
 3405SOL    HW111665   0.615   4.388   5.907  0.5141  1.0735  0.1903
 3405SOL    HW211666   0.480   4.376   5.838  0.8271  3.2633 -0.8686
 3406SOL     OW11667   4.761   3.787   4.920  0.4737  0.6743  0.4450
 3406SOL    HW111668   4.774   3.880   4.898 -0.7735  0.7894  0.1512
 3406SOL    HW211669   4.846   3.747   4.902  0.5301  1.4299 -1.1834
 3407SOL     OW11670   2.560   6.366   4.482  0.1809  0.0420  0.4085
 3407SOL    HW111671   2.625   6.397   4.545  1.8418 -0.6805 -0.8749
 3407SOL    HW211672   2.523   6.446   4.445  1.8373  0.5220 -0.3058
 3408SOL     OW11673   2.522   4.937   5.524 -0.5063 -0.5602 -0.3835
 3408SOL    HW111674   2.499   4.982   5.606 -0.3109  0.6254 -0.9584
 3408SOL    HW211675   2.512   5.004   5.457 -1.5976 -1.7727 -1.4722
 3409SOL     OW11676   3.107   5.816   5.935 -0.3393 -0.6064  0.0992
 3409SOL    HW111677   3.085   5.849   6.022 -0.1844 -0.6265  0.1463
 3409SOL    HW211678   3.193   5.777   5.946  0.1327  0.3030 -0.3040
 3410SOL     OW11679   4.660   1.559   0.966  0.1714 -0.5310 -0.0406
 3410SOL    HW111680   4.680   1.521   1.051 -2.1551 -0.1820  0.7309
 3410SOL    HW211681   4.635   1.485   0.911  0.6803 -0.6511 -0.1088
 3411SOL     OW11682   3.629   7.043   4.369 -0.5693  0.3939  0.0370
 3411SOL    HW111683   3.566   7.086   4.426 -0.4970  0.4850  0.0475
 3411SOL    HW211684   3.661   7.112   4.311  0.7347  0.7165  1.0903
 3412SOL     OW11685   3.215   3.859   0.209  0.2384  0.3377 -0.0929
 3412SOL    HW111686   3.292   3.804   0.193  0.1303  0.0125  0.4788
 3412SOL    HW211687   3.235   3.942   0.165  0.6551  0.0470 -0.4601
 3413SOL     OW11688   2.412   0.966   5.555 -0.1543 -0.2097  0.5901
 3413SOL    HW111689   2.359   0.909   5.498  0.2714  0.8211 -0.8874
 3413SOL    HW211690   2.489   0.913   5.576  0.8664  0.1847 -1.8259
 3414SOL     OW11691   1.046   3.251   6.475  0.1108  0.4767 -0.1521
 3414SOL    HW111692   1.062   3.345   6.483 -2.7673  0.9128  2.5254
 3414SOL    HW211693   1.113   3.210   6.529 -1.0162  1.3877  2.0627
 3415SOL     OW11694   0.716   1.162   4.540  0.4278  0.1388  0.0743
 3415SOL    HW111695   0.675   1.242   4.509 -0.6149 -0.0097  0.9909
 3415SOL    HW211696   0.801   1.159   4.496  0.5795  1.8543  0.1960
 3416SOL     OW11697   2.149   2.055   0.141 -0.0105  0.4010 -0.0302
 3416SOL    HW111698   2.069   2.090   0.181 -0.3858 -1.1416  0.6447
 3416SOL    HW211699   2.118   2.014   0.059 -0.4093 -2.3339  1.3567
 3417SOL     OW11700   6.901   4.109   6.107 -0.5457 -0.5188  0.3144
 3417SOL    HW111701   6.948   4.187   6.076 -0.7232 -0.7426 -0.5376
 3417SOL    HW211702   6.903   4.049   6.033 -2.3859 -0.4520  0.1633
 3418SOL     OW11703   1.555   4.910   5.236  0.0088 -0.4696 -0.3117
 3418SOL    HW111704   1.523   4.824   5.210  1.8984 -0.9426 -1.2771
 3418SOL    HW211705   1.554   4.908   5.332 -2.6895 -0.4420 -0.2822
 3419SOL     OW11706   4.243   3.889   0.560  0.1323  0.3069  0.6375
 3419SOL    HW111707   4.279   3.873   0.647  1.1267  0.0633  0.2033
 3419SOL    HW211708   4.166   3.832   0.554  1.8719 -2.1523  0.2250
 3420SOL     OW11709   2.181   2.813   5.026  0.1142 -0.2748  0.0343
 3420SOL    HW111710   2.187   2.883   5.092 -0.3218 -0.1006 -0.1102
 3420SOL    HW211711   2.251   2.752   5.050 -0.5246 -0.6137  1.1263
 3421SOL     OW11712   4.648   0.089   5.333  0.6451 -0.4985 -0.1079
 3421SOL    HW111713   4.624   0.001   5.362 -0.1162  0.4738  2.5792
 3421SOL    HW211714   4.741   0.096   5.353  1.4505 -1.5542 -2.9976
 3422SOL     OW11715   0.619   4.829   3.438 -0.5513 -0.5032 -0.2506
 3422SOL    HW111716   0.533   4.816   3.479 -1.1458  0.9092 -0.9441
 3422SOL    HW211717   0.680   4.780   3.492 -1.6254 -0.4899  1.0247
 3423SOL     OW11718   2.023   1.030   5.539 -0.8611  0.7182 -0.4672
 3423SOL    HW111719   2.040   1.075   5.457 -4.2893  1.0332 -1.1680
 3423SOL    HW211720   1.988   1.098   5.597 -2.6879 -0.2833 -0.3140
 3424SOL     OW11721   1.886   3.907   3.652 -0.2677  0.3760  0.0979
 3424SOL    HW111722   1.953   3.844   3.625 -0.8600 -0.3103  0.2098
 3424SOL    HW211723   1.882   3.898   3.747 -0.2011  0.7414  0.1357
 3425SOL     OW11724   6.116   0.547   4.530  0.3078  0.0964 -0.0057
 3425SOL    HW111725   6.142   0.585   4.614 -0.7761 -0.0686  0.4246
 3425SOL    HW211726   6.066   0.468   4.554  0.4052 -0.2238 -0.8189
 3426SOL     OW11727   1.975   5.715   1.747  1.0384 -0.0359 -0.1183
 3426SOL    HW111728   1.969   5.646   1.681 -1.8602 -0.5924  0.5953
 3426SOL    HW211729   1.933   5.791   1.706  2.0896  0.6166 -0.0299
 3427SOL     OW11730   4.438   4.448   1.484  0.4011  0.1407  0.3957
 3427SOL    HW111731   4.465   4.514   1.420 -0.4676  0.5456  0.4369
 3427SOL    HW211732   4.464   4.485   1.569  0.5480  0.1082  0.3654
 3428SOL     OW11733   5.809   3.441   2.169  0.0510 -0.5377  0.0236
 3428SOL    HW111734   5.860   3.366   2.139  0.2533 -0.8317  1.0615
 3428SOL    HW211735   5.721   3.406   2.183 -0.3619 -0.1242 -1.3663
 3429SOL     OW11736   5.778   3.709   1.988 -0.1844 -0.8301 -0.0183
 3429SOL    HW111737   5.726   3.633   2.017 -0.3176 -1.1606 -1.0946
 3429SOL    HW211738   5.719   3.757   1.930 -1.1419  1.6764  2.7507
 3430SOL     OW11739   5.148   2.225   3.835 -0.2257 -0.0179  0.2723
 3430SOL    HW111740   5.052   2.230   3.829 -0.2005  0.4917  0.2191
 3430SOL    HW211741   5.174   2.309   3.871  0.2196 -0.0798  0.1052
 3431SOL     OW11742   1.660   6.256   3.686 -0.0079  0.3707 -0.2454
 3431SOL    HW111743   1.648   6.304   3.604  0.5887 -1.4545 -1.4778
 3431SOL    HW211744   1.578   6.207   3.697  0.2354 -0.0466 -0.2385
 3432SOL     OW11745   5.985   4.495   5.303  0.1522 -0.5889 -0.2917
 3432SOL    HW111746   5.947   4.538   5.226 -0.6348  0.7896  0.8109
 3432SOL    HW211747   5.911   4.451   5.345 -0.1697  1.4623  1.4536
 3433SOL     OW11748   0.711   4.380   6.480  0.3355 -0.0851 -0.0450
 3433SOL    HW111749   0.798   4.342   6.483  0.0728 -0.8100 -1.1843
 3433SOL    HW211750   0.654   4.310   6.448 -0.3029  0.9678 -1.3425
 3434SOL     OW11751   0.208   3.588   2.670  0.0388  0.3691 -0.4532
 3434SOL    HW111752   0.261   3.630   2.738 -0.5322  0.3878 -0.0098
 3434SOL    HW211753   0.266   3.522   2.633  0.7571  1.1511 -0.7693
 3435SOL     OW11754   5.313   2.550   5.443 -0.2833  0.5252  0.4722
 3435SOL    HW111755   5.395   2.550   5.492  0.6439  1.4863 -1.0214
 3435SOL    HW211756   5.298   2.457   5.422 -0.0896  0.2390  1.5292
 3436SOL     OW11757   2.663   4.150   0.066  0.5782  0.1121  0.1183
 3436SOL    HW111758   2.613   4.221   0.026  0.1574 -0.0415  0.3655
 3436SOL    HW211759   2.677   4.178   0.157 -2.3089 -1.4438  1.1801
 3437SOL     OW11760   5.091   4.430   1.116  0.3523  0.0739  0.1278
 3437SOL    HW111761   5.183   4.432   1.091  0.1938 -2.5662 -0.9393
 3437SOL    HW211762   5.085   4.360   1.181 -0.7070  1.2066  1.3288
 3438SOL     OW11763   6.437   3.779   1.239  0.1848 -0.5596 -0.0162
 3438SOL    HW111764   6.454   3.735   1.156 -0.7702 -0.9590 -0.0217
 3438SOL    HW211765   6.354   3.741   1.269  0.8205 -0.8957  1.4370
 3439SOL     OW11766   5.374   3.312   1.036  0.0963  0.6754  0.4379
 3439SOL    HW111767   5.326   3.357   0.967  0.4281  1.0241  0.4301
 3439SOL    HW211768   5.311   3.303   1.108  0.1910  1.6769  0.6615
 3440SOL     OW11769   0.376   4.817   5.375 -0.2648  0.0187 -0.0535
 3440SOL    HW111770   0.412   4.893   5.330  0.3703 -0.2509 -0.0128
 3440SOL    HW211771   0.322   4.773   5.310 -0.4370  0.3739 -0.1464
 3441SOL     OW11772   0.517   3.546   5.195 -0.1563 -0.0478 -0.4185
 3441SOL    HW111773   0.593   3.573   5.143 -0.6547  2.8043  0.1593
 3441SOL    HW211774   0.551   3.537   5.284 -0.1039 -1.0024 -0.5173
 3442SOL     OW11775   6.261   3.540   3.676  0.0800 -0.4826 -0.0996
 3442SOL    HW111776   6.203   3.553   3.600  1.0076  0.2403 -0.7027
 3442SOL    HW211777   6.345   3.515   3.638  1.1920  2.0018  0.5095
 3443SOL     OW11778   3.214   3.426   1.604 -0.2371  0.1415  0.3967
 3443SOL    HW111779   3.197   3.386   1.518  1.8753  0.2652 -0.1346
 3443SOL    HW211780   3.149   3.387   1.662 -0.6636 -1.1958 -0.9133
 3444SOL     OW11781   6.168   3.236   3.191 -0.1992 -0.0314  0.1725
 3444SOL    HW111782   6.125   3.158   3.226  1.2173  0.0261  2.1745
 3444SOL    HW211783   6.255   3.206   3.164 -0.2854  0.5112 -0.7664
 3445SOL     OW11784   1.826   6.156   7.049 -0.0992  0.1444 -0.0425
 3445SOL    HW111785   1.799   6.247   7.056  1.8262  0.8869 -1.4225
 3445SOL    HW211786   1.785   6.124   6.969 -0.6287 -0.1774  0.3463
 3446SOL     OW11787   6.415   1.069   2.440  0.2203  0.0798 -0.4898
 3446SOL    HW111788   6.384   1.092   2.353 -0.5262 -1.1961 -0.5910
 3446SOL    HW211789   6.371   1.130   2.499 -0.8002 -0.3011 -0.8411
 3447SOL     OW11790   0.468   3.271   5.551 -0.4539  0.0899  0.1488
 3447SOL    HW111791   0.437   3.296   5.638  1.3822  1.9677  0.3455
 3447SOL    HW211792   0.394   3.225   5.512 -1.4927 -0.3812  2.5065
 3448SOL     OW11793   3.917   4.646   2.909  0.8548 -0.0287 -0.1334
 3448SOL    HW111794   3.951   4.598   2.984 -1.6938 -2.0776 -0.1453
 3448SOL    HW211795   3.933   4.588   2.834 -0.7645 -0.1428 -0.4176
 3449SOL     OW11796   6.254   0.837   6.194  0.0854 -0.7615  0.2987
 3449SOL    HW111797   6.326   0.775   6.188  0.9673 -0.0944  3.0109
 3449SOL    HW211798   6.293   0.922   6.175 -0.6050 -0.6848 -0.9130
 3450SOL     OW11799   6.468   6.683   1.718 -0.2480 -0.5305  0.1925
 3450SOL    HW111800   6.465   6.746   1.646  1.0538  1.0704  1.4514
 3450SOL    HW211801   6.407   6.718   1.783  0.2752 -0.6968  0.7843
 3451SOL     OW11802   2.223   3.552   0.925  0.5203 -0.0315 -0.0645
 3451SOL    HW111803   2.228   3.471   0.976 -0.9418  0.0526  0.2601
 3451SOL    HW211804   2.154   3.535   0.861 -0.1194  1.1026  0.2964
 3452SOL     OW11805   5.488   0.638   4.435 -0.0586 -0.1217 -0.6026
 3452SOL    HW111806   5.437   0.566   4.474 -1.7640  1.3005 -0.0801
 3452SOL    HW211807   5.447   0.652   4.349  0.9935 -0.4784 -1.1785
 3453SOL     OW11808   5.474   5.628   4.181  0.0677  0.2053  0.6600
 3453SOL    HW111809   5.478   5.677   4.098  0.8737 -1.1480 -0.1377
 3453SOL    HW211810   5.453   5.538   4.155  0.4852 -0.2743  1.9166
 3454SOL     OW11811   5.073   2.280   6.814  0.1256  0.4124  0.3979
 3454SOL    HW111812   5.148   2.339   6.810  1.3872 -0.9827  2.1367
 3454SOL    HW211813   5.104   2.204   6.862 -2.1481 -0.6444  0.3454
 3455SOL     OW11814   2.816   5.514   2.851 -0.1487  0.4673  0.0550
 3455SOL    HW111815   2.745   5.484   2.796  1.0580  0.0300 -1.3047
 3455SOL    HW211816   2.826   5.607   2.829  0.0602  0.3933 -0.1656
 3456SOL     OW11817   1.144   5.512   4.610 -0.2480 -0.0056  0.1185
 3456SOL    HW111818   1.212   5.576   4.635  0.4983 -0.3849 -0.8951
 3456SOL    HW211819   1.072   5.566   4.577  0.2614  0.3374 -0.4530
 3457SOL     OW11820   1.299   2.494   3.147  0.1904  0.2091 -0.1658
 3457SOL    HW111821   1.205   2.480   3.137 -0.0212 -2.6431  3.5245
 3457SOL    HW211822   1.307   2.554   3.221  1.0917 -2.0297  1.6938
 3458SOL     OW11823   1.344   5.385   3.236 -0.1091 -0.5425 -0.0270
 3458SOL    HW111824   1.335   5.366   3.329  0.1873 -0.2229  0.0699
 3458SOL    HW211825   1.254   5.386   3.202 -0.3328  0.7077  0.5327
 3459SOL     OW11826   1.750   4.811   4.294 -0.4691 -0.2669 -0.0839
 3459SOL    HW111827   1.720   4.810   4.203 -1.6082  1.9155  0.2116
 3459SOL    HW211828   1.837   4.849   4.290 -0.6214  0.0664 -0.2381
 3460SOL     OW11829   6.842   5.317   4.508  0.3612 -0.3547 -0.1829
 3460SOL    HW111830   6.763   5.305   4.561 -0.4068 -0.5727 -1.3470
 3460SOL    HW211831   6.857   5.231   4.468  0.3302  0.0761 -1.1315
 3461SOL     OW11832   0.335   0.350   3.009  0.1143 -0.3745 -0.6183
 3461SOL    HW111833   0.283   0.281   2.967 -0.0495 -0.0972 -0.8743
 3461SOL    HW211834   0.370   0.308   3.088  0.5349 -0.9343 -1.0998
 3462SOL     OW11835   1.343   2.856   3.130 -0.0385 -0.1445  0.0512
 3462SOL    HW111836   1.328   2.793   3.060 -0.3901 -0.5469  0.4852
 3462SOL    HW211837   1.352   2.803   3.209 -1.3997  0.3871  0.5909
 3463SOL     OW11838   2.080   3.226   1.944 -0.3845 -0.0230  0.2463
 3463SOL    HW111839   2.104   3.149   1.997 -1.8719  0.3547  1.5552
 3463SOL    HW211840   2.090   3.300   2.004 -0.9411  0.5610 -0.3720
 3464SOL     OW11841   4.077   0.028   6.081  0.2515  0.0680 -0.2728
 3464SOL    HW111842   4.006   0.064   6.029 -1.0568  0.1417  1.4649
 3464SOL    HW211843   4.037  -0.043   6.131  0.8742  1.3093  2.1549
 3465SOL     OW11844   5.009   6.761   5.167 -0.1017 -0.1701 -0.0338
 3465SOL    HW111845   5.038   6.821   5.099 -1.8187  0.0511 -0.6335
 3465SOL    HW211846   4.985   6.681   5.119 -2.0483  0.2477  0.1539
 3466SOL     OW11847   5.570   4.847   0.026 -0.0056  0.4338 -0.7945
 3466SOL    HW111848   5.495   4.902   0.002 -2.2374 -1.5673  1.0475
 3466SOL    HW211849   5.557   4.827   0.118  1.5694 -1.8091 -0.9720
 3467SOL     OW11850   1.188   7.024   5.132 -0.2271 -0.3993  0.0684
 3467SOL    HW111851   1.129   7.099   5.131  0.9779  0.5771 -0.9415
 3467SOL    HW211852   1.246   7.041   5.207  1.2778  0.7095 -1.3024
 3468SOL     OW11853   4.540   4.240   6.396  0.2371  0.4978  0.0551
 3468SOL    HW111854   4.531   4.319   6.343  0.7039  0.0393 -0.7248
 3468SOL    HW211855   4.456   4.232   6.441 -0.3521  0.6438 -0.9870
 3469SOL     OW11856   2.961   2.324   6.902 -0.1291  0.4022  0.5558
 3469SOL    HW111857   2.913   2.375   6.967 -1.6712 -0.6492  0.3018
 3469SOL    HW211858   3.037   2.289   6.949 -0.0927  1.3412  1.2216
 3470SOL     OW11859   4.278   6.096   4.449 -0.5489 -0.1786  0.5941
 3470SOL    HW111860   4.308   6.027   4.508 -0.1033  1.0937  1.8976
 3470SOL    HW211861   4.260   6.050   4.367  2.0246 -1.4888  0.6553
 3471SOL     OW11862   1.633   5.492   4.160 -0.3375 -0.4581 -0.2275
 3471SOL    HW111863   1.707   5.456   4.110  0.5721 -0.0472  0.7725
 3471SOL    HW211864   1.569   5.517   4.094  1.1180  0.7482 -1.2624
 3472SOL     OW11865   0.823   7.021   2.675  0.4813 -0.3734  0.2735
 3472SOL    HW111866   0.825   7.116   2.659  0.1344  0.0682  2.5986
 3472SOL    HW211867   0.739   7.006   2.718  0.2814 -1.8743 -0.5680
 3473SOL     OW11868   3.783   2.323   6.619  0.1044  0.0389 -0.0788
 3473SOL    HW111869   3.841   2.326   6.543  1.5037  2.3609  0.9842
 3473SOL    HW211870   3.826   2.263   6.680 -0.1056 -0.4464 -0.4018
 3474SOL     OW11871   4.554   4.174   4.436  0.0787  0.5320  0.6416
 3474SOL    HW111872   4.574   4.086   4.470 -1.0868  0.3650  0.9533
 3474SOL    HW211873   4.635   4.224   4.449  1.7847 -1.2329 -2.1881
 3475SOL     OW11874   5.040   2.678   0.439  0.0650 -0.2487 -0.0975
 3475SOL    HW111875   5.092   2.636   0.508  0.0949  0.2120  0.1716
 3475SOL    HW211876   5.065   2.771   0.445 -1.3996  0.1289  0.6041
 3476SOL     OW11877   4.090   6.927   6.955 -0.4638 -0.0087 -0.0460
 3476SOL    HW111878   4.050   6.852   7.000 -1.0964  0.8673  0.8817
 3476SOL    HW211879   4.162   6.888   6.904 -0.0926 -1.1253  1.2588
 3477SOL     OW11880   4.955   6.163   2.587 -0.1256  0.5528 -0.2883
 3477SOL    HW111881   4.861   6.151   2.581  0.0004 -0.1758 -0.9549
 3477SOL    HW211882   4.971   6.192   2.677 -1.1053  1.8937 -0.5190
 3478SOL     OW11883   1.291   4.091   3.159  0.0709 -0.1570 -0.4395
 3478SOL    HW111884   1.220   4.070   3.099  0.3633 -1.3278 -0.3842
 3478SOL    HW211885   1.320   4.007   3.193  1.2355  0.3390 -0.1635
 3479SOL     OW11886   2.419   3.610   4.994  0.0975 -0.0618 -0.2925
 3479SOL    HW111887   2.397   3.551   4.922 -0.0092  0.0611 -0.3614
 3479SOL    HW211888   2.397   3.562   5.073 -1.5958  0.5121 -0.3745
 3480SOL     OW11889   2.581   0.253   3.920 -0.2061  0.0012 -0.2880
 3480SOL    HW111890   2.552   0.329   3.970  0.2122 -0.6271  0.9347
 3480SOL    HW211891   2.658   0.284   3.871  3.0415 -0.6677  3.7818
 3481SOL     OW11892   4.812   5.923   2.970  0.0352 -0.3006  0.7461
 3481SOL    HW111893   4.894   5.882   2.945 -0.4441 -1.3804  0.8777
 3481SOL    HW211894   4.745   5.856   2.954 -0.9083  0.7645  0.0231
 3482SOL     OW11895   1.670   3.514   0.288 -0.4773 -0.2766 -0.6717
 3482SOL    HW111896   1.750   3.465   0.305 -0.8846 -0.8102 -0.2430
 3482SOL    HW211897   1.608   3.449   0.255 -0.5180  0.2691 -1.6940
 3483SOL     OW11898   5.050   0.186   6.393  0.0501 -0.3062  0.2413
 3483SOL    HW111899   4.963   0.193   6.433  0.6119  0.8693  1.3005
 3483SOL    HW211900   5.050   0.099   6.351 -1.4536 -0.5150  0.6216
 3484SOL     OW11901   0.681   1.476   1.905  0.2981  0.1283 -0.5695
 3484SOL    HW111902   0.626   1.529   1.848  1.0491  0.2666 -1.1807
 3484SOL    HW211903   0.754   1.533   1.928 -0.2644  0.2575  0.9900
 3485SOL     OW11904   1.367   1.189   4.710  0.2792  0.6716  0.5645
 3485SOL    HW111905   1.410   1.162   4.791 -0.5379  0.2325  0.8643
 3485SOL    HW211906   1.415   1.267   4.681  0.0977  1.2981  1.8875
 3486SOL     OW11907   0.896   2.081   4.169  0.5220  0.0325 -0.2628
 3486SOL    HW111908   0.988   2.056   4.169  0.0507 -2.1056  1.9281
 3486SOL    HW211909   0.875   2.097   4.261 -0.7872  2.7674 -0.9532
 3487SOL     OW11910   5.619   6.926   1.984  0.3568  0.7015 -0.0121
 3487SOL    HW111911   5.702   6.973   1.990  0.3520  0.9065 -1.2239
 3487SOL    HW211912   5.643   6.841   1.946  0.4130 -0.4597  2.4202
 3488SOL     OW11913   4.809   0.511   4.048  0.2565  0.0223  0.3366
 3488SOL    HW111914   4.864   0.523   4.126  1.5221  0.3166 -0.5624
 3488SOL    HW211915   4.776   0.599   4.029 -0.3163 -0.1064  0.7173
 3489SOL     OW11916   2.142   6.676   6.458 -0.2081  0.1359 -0.7260
 3489SOL    HW111917   2.185   6.597   6.490 -1.9384  0.0245  1.5738
 3489SOL    HW211918   2.160   6.742   6.525  0.7400  1.6058 -2.3342
 3490SOL     OW11919   1.485   0.481   1.780 -0.0069  0.2105 -0.7862
 3490SOL    HW111920   1.475   0.490   1.685  0.9920 -0.5674 -0.9806
 3490SOL    HW211921   1.461   0.390   1.798  2.9978 -0.6797 -0.8015
 3491SOL     OW11922   1.371   4.469   4.752 -0.3748 -0.1156  0.0225
 3491SOL    HW111923   1.323   4.535   4.703  0.6325 -0.2127 -1.1282
 3491SOL    HW211924   1.312   4.394   4.756 -0.1126 -0.4788 -1.9595
 3492SOL     OW11925   2.616   1.886   2.268  0.5581  0.3018 -0.3802
 3492SOL    HW111926   2.564   1.872   2.189 -0.5182  0.4129  0.2852
 3492SOL    HW211927   2.593   1.974   2.297  1.7126  0.6515 -0.4908
 3493SOL     OW11928   0.234   1.763   6.278 -0.1441 -0.6365 -0.0747
 3493SOL    HW111929   0.171   1.707   6.324 -1.6689 -0.6673 -2.0439
 3493SOL    HW211930   0.195   1.850   6.283 -0.0419 -0.5463 -0.7775
 3494SOL     OW11931   0.028   1.966   5.049 -0.6957  0.4797 -0.0799
 3494SOL    HW111932  -0.042   2.031   5.036 -0.2958  1.5270  2.5528
 3494SOL    HW211933   0.002   1.918   5.127  1.3946  0.7197  0.8158
 3495SOL     OW11934   1.367   7.053   4.135 -0.3303 -0.1768  0.4287
 3495SOL    HW111935   1.462   7.057   4.141 -0.3855 -0.5085  1.7637
 3495SOL    HW211936   1.344   6.964   4.159 -1.0251  0.1100  0.8735
 3496SOL     OW11937   4.276   1.009   0.254  0.0292  0.0179  0.6264
 3496SOL    HW111938   4.351   0.962   0.217  0.0460  0.5765 -0.0748
 3496SOL    HW211939   4.314   1.067   0.319  0.2567  0.5695  0.0092
 3497SOL     OW11940   2.182   2.162   3.675  0.2249  0.5400  0.4181
 3497SOL    HW111941   2.167   2.166   3.580  2.0975 -1.5270 -0.0433
 3497SOL    HW211942   2.095   2.170   3.714 -0.6762  0.6043 -1.5083
 3498SOL     OW11943   4.559   0.163   6.007 -0.5765  0.4433 -0.2361
 3498SOL    HW111944   4.613   0.172   5.928 -0.2160  0.5599  0.0184
 3498SOL    HW211945   4.622   0.144   6.076 -1.0931 -2.1905 -0.3932
 3499SOL     OW11946   4.062   1.710   3.993 -0.2075  0.0016 -0.3189
 3499SOL    HW111947   4.029   1.669   4.073  0.9555  0.0915  0.2301
 3499SOL    HW211948   3.987   1.758   3.958 -1.3443 -1.8009 -0.4863
 3500SOL     OW11949   3.200   3.534   0.898 -0.1779 -0.5060  0.5498
 3500SOL    HW111950   3.283   3.488   0.898  0.1948  0.1154 -0.5777
 3500SOL    HW211951   3.199   3.583   0.815 -1.3002  0.1440  0.9103
 3501SOL     OW11952   2.478   6.718   6.981 -0.5049 -1.1547  0.5409
 3501SOL    HW111953   2.561   6.672   6.970  0.5970  0.3154  2.2573
 3501SOL    HW211954   2.423   6.658   7.032  1.1655 -0.4253  3.4069
 3502SOL     OW11955   6.386   0.101   4.546 -0.3624  0.3771 -0.4000
 3502SOL    HW111956   6.379   0.034   4.614 -0.3699  0.7390 -0.0456
 3502SOL    HW211957   6.394   0.051   4.464  0.1990 -0.0602 -0.0855
 3503SOL     OW11958   6.901   2.784   0.424 -0.2314 -0.4413 -0.1833
 3503SOL    HW111959   6.900   2.855   0.488 -0.4691 -0.9382  0.3721
 3503SOL    HW211960   6.964   2.721   0.459  0.1571 -0.4040 -0.7914
 3504SOL     OW11961   0.927   0.615   5.526  0.0050  0.5681  0.4228
 3504SOL    HW111962   0.973   0.624   5.609  1.5398 -1.4675 -0.1175
 3504SOL    HW211963   0.847   0.567   5.548  0.7570 -0.6067  0.6526
 3505SOL     OW11964   4.380   0.207   6.698  0.1070 -0.3027  0.1164
 3505SOL    HW111965   4.435   0.131   6.719  1.5534  0.3216 -1.1801
 3505SOL    HW211966   4.442   0.273   6.668 -1.1134  1.4189  1.1782
 3506SOL     OW11967   0.899   0.657   1.315 -0.4297 -0.1134  0.0809
 3506SOL    HW111968   0.903   0.735   1.372 -0.7188  0.9554 -1.2996
 3506SOL    HW211969   0.956   0.679   1.241  0.5967 -1.8200  0.3214
 3507SOL     OW11970   6.209   5.494   3.624 -0.5406  0.0157 -0.0109
 3507SOL    HW111971   6.182   5.411   3.585 -1.9894 -0.6201  2.1946
 3507SOL    HW211972   6.147   5.509   3.695  0.5088  2.3281  0.5084
 3508SOL     OW11973   0.395   5.182   3.394 -0.2452 -0.0668  0.1569
 3508SOL    HW111974   0.330   5.138   3.339  1.4535 -0.6176 -1.5238
 3508SOL    HW211975   0.479   5.157   3.357  0.9296  1.3104  1.7193
 3509SOL     OW11976   1.435   0.306   3.152 -0.7265 -0.1684  0.2512
 3509SOL    HW111977   1.352   0.286   3.108 -0.9319 -0.5992  0.8330
 3509SOL    HW211978   1.410   0.362   3.225 -0.7505 -1.8223  1.5606
 3510SOL     OW11979   5.359   2.292   0.840  0.2578  0.1618 -0.1069
 3510SOL    HW111980   5.354   2.206   0.882 -1.6700  0.2732 -0.0264
 3510SOL    HW211981   5.411   2.277   0.761  1.2425 -0.7330  0.6807
 3511SOL     OW11982   4.531   4.129   5.713 -0.0512  0.0225 -0.6658
 3511SOL    HW111983   4.621   4.159   5.700  0.6780 -1.3323  0.8561
 3511SOL    HW211984   4.514   4.145   5.806 -1.9908  1.7355 -1.2519
 3512SOL     OW11985   2.275   1.367   4.118  0.1231 -0.5325 -0.4455
 3512SOL    HW111986   2.359   1.384   4.162 -0.7277 -0.3117  1.1526
 3512SOL    HW211987   2.227   1.312   4.179 -1.1238 -0.1969 -1.1010
 3513SOL     OW11988   0.998   2.201   2.712  0.3667 -0.0766 -0.5047
 3513SOL    HW111989   0.913   2.157   2.711 -0.7478  1.7068  2.5170
 3513SOL    HW211990   1.055   2.143   2.763 -0.0916  0.3595  0.5146
 3514SOL     OW11991   4.346   6.787   1.478 -0.1840  0.0447 -0.1094
 3514SOL    HW111992   4.339   6.740   1.395 -0.6181  0.6541 -0.4282
 3514SOL    HW211993   4.433   6.829   1.474 -1.0493  1.8711 -1.2555
 3515SOL     OW11994   2.685   6.994   2.761  0.1181 -0.1498  0.5137
 3515SOL    HW111995   2.766   6.945   2.743  1.2935  2.4342 -2.1836
 3515SOL    HW211996   2.637   6.992   2.678 -1.2123  0.7111  1.2270
 3516SOL     OW11997   2.878   0.664   5.581  0.2362  0.6116 -0.6722
 3516SOL    HW111998   2.899   0.630   5.668  0.7263  0.0484 -1.0068
 3516SOL    HW211999   2.924   0.607   5.520 -0.4926  0.6959 -1.3330
 3517SOL     OW12000   3.932   0.321   6.293 -0.4392 -0.5519  0.0957
 3517SOL    HW112001   3.946   0.346   6.385  0.0588 -1.8890  0.4067
 3517SOL    HW212002   4.020   0.299   6.261 -0.9088 -2.7834  0.1530
 3518SOL     OW12003   0.829   0.238   6.490  0.3423 -0.0121 -0.0585
 3518SOL    HW112004   0.797   0.298   6.422  1.1876 -0.2534 -0.6947
 3518SOL    HW212005   0.759   0.236   6.555  0.0052  1.1411 -0.3481
 3519SOL     OW12006   0.039   4.706   3.666 -0.2411  0.3483 -0.0808
 3519SOL    HW112007  -0.040   4.752   3.637 -0.0361  0.3090 -0.7283
 3519SOL    HW212008   0.008   4.619   3.689 -0.6385  0.8032  1.1881
 3520SOL     OW12009   5.269   6.250   3.024  0.7676 -0.3618 -0.3385
 3520SOL    HW112010   5.284   6.338   3.059  0.8139 -0.5661  0.1614
 3520SOL    HW212011   5.351   6.204   3.039 -0.6709 -2.0291  3.9817
 3521SOL     OW12012   1.625   2.732   6.721  0.2861 -0.3569  0.2009
 3521SOL    HW112013   1.651   2.668   6.788  1.1134  1.3040  1.5496
 3521SOL    HW212014   1.708   2.770   6.691 -0.0936 -0.8496 -1.5941
 3522SOL     OW12015   0.740   3.475   1.437  0.3958 -0.1359 -0.6990
 3522SOL    HW112016   0.703   3.442   1.355  1.0456  1.2237 -1.5944
 3522SOL    HW212017   0.799   3.546   1.409  1.2992 -0.2115  0.8867
 3523SOL     OW12018   4.857   6.316   3.217  0.2424  0.2869  0.0170
 3523SOL    HW112019   4.802   6.282   3.147 -0.8147 -3.3823  2.3073
 3523SOL    HW212020   4.942   6.275   3.202  0.6394  1.1768 -0.2267
 3524SOL     OW12021   4.294   0.772   6.741  0.2279  0.3460 -0.2688
 3524SOL    HW112022   4.389   0.761   6.744  0.6231  2.5299 -2.1035
 3524SOL    HW212023   4.267   0.771   6.833  1.9591 -0.6027  0.2754
 3525SOL     OW12024   2.200   1.399   1.607  0.0219 -0.1524 -0.0120
 3525SOL    HW112025   2.165   1.316   1.640 -0.8754  0.3281  0.2940
 3525SOL    HW212026   2.124   1.442   1.567  0.2575  0.9358  0.6693
 3526SOL     OW12027   3.190   0.455   5.297 -0.3277  0.1870 -0.0330
 3526SOL    HW112028   3.256   0.470   5.365  0.4359  1.2448 -0.9564
 3526SOL    HW212029   3.202   0.364   5.270 -1.2962 -0.5617  1.8822
 3527SOL     OW12030   3.874   4.308   1.266 -0.2239  0.1196 -0.7278
 3527SOL    HW112031   3.891   4.274   1.354 -1.0266  0.7716 -0.2984
 3527SOL    HW212032   3.953   4.288   1.216  0.5443  0.4025  0.3429
 3528SOL     OW12033   2.569   4.571   2.996  0.1886 -0.1370  0.6036
 3528SOL    HW112034   2.488   4.556   2.948 -0.0052 -0.7572  1.1046
 3528SOL    HW212035   2.637   4.537   2.938 -0.0030 -0.4822  0.5734
 3529SOL     OW12036   0.854   5.689   2.147 -0.0656  0.0082 -0.3007
 3529SOL    HW112037   0.918   5.675   2.077 -0.3437 -0.1989 -0.5138
 3529SOL    HW212038   0.817   5.602   2.164 -1.2081  0.3230 -1.0604
 3530SOL     OW12039   4.519   2.889   6.197  0.4467 -0.7120 -0.1563
 3530SOL    HW112040   4.513   2.793   6.203  0.1694 -0.7028 -0.2904
 3530SOL    HW212041   4.493   2.909   6.107  1.0152 -0.5526 -0.2878
 3531SOL     OW12042   0.905   5.755   1.307  0.1561  0.1744  0.2869
 3531SOL    HW112043   0.961   5.831   1.322  0.6434 -0.2227  0.5243
 3531SOL    HW212044   0.875   5.764   1.217 -0.1716  0.8929  0.4653
 3532SOL     OW12045   6.109   4.482   0.800 -0.5221  0.5467 -0.6337
 3532SOL    HW112046   6.148   4.492   0.713  1.9897  0.7620  0.4222
 3532SOL    HW212047   6.054   4.404   0.792 -1.0782  1.0849 -2.6238
 3533SOL     OW12048   3.349   4.978   0.365  0.4168 -0.4596 -0.0041
 3533SOL    HW112049   3.292   5.036   0.417  1.5694 -1.1281  2.1142
 3533SOL    HW212050   3.305   4.893   0.367  2.3752 -1.5896  3.5822
 3534SOL     OW12051   4.426   6.303   6.612 -0.4119 -0.3608 -0.8887
 3534SOL    HW112052   4.486   6.306   6.686  0.8825 -1.9431 -1.8169
 3534SOL    HW212053   4.359   6.369   6.633  0.2084 -0.3717  1.3957
 3535SOL     OW12054   5.556   0.972   3.995 -0.6229  0.4194  0.0597
 3535SOL    HW112055   5.490   0.927   4.048 -0.6640  1.2350  0.7234
 3535SOL    HW212056   5.635   0.970   4.049 -0.6365  1.1673  0.1098
 3536SOL     OW12057   1.209   3.547   6.973  0.3054 -0.0489 -0.0397
 3536SOL    HW112058   1.296   3.585   6.958  0.2157  1.5394  2.7130
 3536SOL    HW212059   1.164   3.555   6.889  1.9970  1.3697 -0.8801
 3537SOL     OW12060   0.614   3.364   1.224 -0.1379  0.3203  0.5374
 3537SOL    HW112061   0.520   3.380   1.213  0.0629  1.8911  0.9033
 3537SOL    HW212062   0.656   3.421   1.159  0.5702 -0.6899  0.0764
 3538SOL     OW12063   7.062   1.551   2.855 -0.1109  0.1097 -0.4187
 3538SOL    HW112064   7.154   1.535   2.876 -0.0072  0.5820 -0.5104
 3538SOL    HW212065   7.020   1.466   2.869  0.6173 -0.5418 -1.9664
 3539SOL     OW12066   2.818   6.989   5.737  0.6738  0.4489 -0.0044
 3539SOL    HW112067   2.896   7.042   5.756  0.3709  0.8089  0.2391
 3539SOL    HW212068   2.749   7.053   5.719  0.5815  0.1273 -0.8372
 3540SOL     OW12069   3.544   0.120   0.258 -0.0564 -0.2397  0.0096
 3540SOL    HW112070   3.526   0.130   0.352  1.4894  0.2355  0.2925
 3540SOL    HW212071   3.544   0.026   0.244  0.8146 -0.3767  0.7650
 3541SOL     OW12072   0.912   1.862   3.430 -0.1852  0.0086 -0.3616
 3541SOL    HW112073   0.915   1.783   3.376 -0.7811 -1.5236  1.7129
 3541SOL    HW212074   0.836   1.910   3.399 -1.6607 -1.7903  0.2862
 3542SOL     OW12075   6.286   0.244   1.182 -0.5669 -0.4465 -0.5706
 3542SOL    HW112076   6.261   0.262   1.092 -0.2088  0.0754 -0.5702
 3542SOL    HW212077   6.205   0.218   1.225 -1.0691  0.9373 -0.6352
 3543SOL     OW12078   3.570   2.051   4.082 -0.7167 -0.3794  0.3718
 3543SOL    HW112079   3.635   1.994   4.040 -2.3567 -1.0615 -1.3867
 3543SOL    HW212080   3.599   2.140   4.062  0.1632 -0.6433  0.4348
 3544SOL     OW12081   2.364   2.538   0.331  0.5490  0.0598 -0.0339
 3544SOL    HW112082   2.435   2.557   0.392 -0.8622  0.1340  1.6513
 3544SOL    HW212083   2.301   2.487   0.382 -0.9096  0.5171 -1.2976
 3545SOL     OW12084   0.189   2.401   1.731  0.0374 -0.1125 -0.1733
 3545SOL    HW112085   0.229   2.314   1.732 -0.9765 -0.5910 -0.1225
 3545SOL    HW212086   0.198   2.433   1.820  0.4556 -0.1411 -0.2030
 3546SOL     OW12087   5.535   4.305   3.787  0.4483 -0.2846 -0.3983
 3546SOL    HW112088   5.472   4.263   3.729  0.2966  0.3278 -0.6761
 3546SOL    HW212089   5.501   4.393   3.801  0.7548 -0.2520  0.2043
 3547SOL     OW12090   3.023   1.961   2.160 -0.7361  0.2109  0.2933
 3547SOL    HW112091   2.947   1.918   2.120 -1.5390  1.0977  0.8384
 3547SOL    HW212092   3.026   2.047   2.119  0.3641 -0.0319 -0.1758
 3548SOL     OW12093   0.627   1.450   3.087  0.4280  0.4287  0.9478
 3548SOL    HW112094   0.600   1.509   3.016 -0.7276 -0.6171  0.4930
 3548SOL    HW212095   0.666   1.508   3.152  0.6180  1.5287 -0.1053
 3549SOL     OW12096   3.090   3.500   2.492  0.1331 -0.0414  0.0761
 3549SOL    HW112097   3.158   3.516   2.427 -0.1675  0.4296 -0.1219
 3549SOL    HW212098   3.102   3.568   2.558 -2.7971  2.8465 -2.0823
 3550SOL     OW12099   5.841   6.807   6.356 -0.0984  0.5675  0.1502
 3550SOL    HW112100   5.909   6.864   6.321  1.9701  0.3128  3.3421
 3550SOL    HW212101   5.888   6.730   6.387 -2.5004 -1.7632 -1.6015
 3551SOL     OW12102   2.190   1.922   4.677  0.3312 -0.0031  0.8402
 3551SOL    HW112103   2.126   1.963   4.734  0.2825  1.3005 -0.1066
 3551SOL    HW212104   2.172   1.828   4.683 -3.0115  0.3810 -0.8655
 3552SOL     OW12105   1.898   2.186   4.681  0.7839 -0.2153 -0.1609
 3552SOL    HW112106   1.896   2.193   4.777  1.4638  0.1273 -0.1659
 3552SOL    HW212107   1.828   2.124   4.660  0.6445 -0.3117  0.5575
 3553SOL     OW12108   5.190   3.991   0.681 -0.2568  0.0856  0.1715
 3553SOL    HW112109   5.160   4.066   0.732 -1.7071  0.3198 -0.9567
 3553SOL    HW212110   5.110   3.948   0.652  0.3736  0.8951 -3.2705
 3554SOL     OW12111   2.611   1.912   2.607 -0.4970 -0.7388  0.2752
 3554SOL    HW112112   2.609   2.004   2.631  1.9690 -0.8665  1.2885
 3554SOL    HW212113   2.605   1.865   2.689  1.1279 -1.3586  0.0888
 3555SOL     OW12114   3.114   4.620   0.625 -0.1286  0.0305  0.8604
 3555SOL    HW112115   3.093   4.530   0.650 -0.4910 -0.7975 -2.0282
 3555SOL    HW212116   3.029   4.666   0.627 -0.0382  0.1604  1.7794
 3556SOL     OW12117   4.583   1.096   3.658 -0.2706  0.4709  0.0079
 3556SOL    HW112118   4.652   1.099   3.592  0.7847 -1.4173  0.9547
 3556SOL    HW212119   4.549   1.007   3.654  0.2490  0.0981  2.3868
 3557SOL     OW12120   5.779   4.631   2.629 -0.3101  0.0126  0.2924
 3557SOL    HW112121   5.836   4.708   2.618  0.9642 -0.9267  0.0485
 3557SOL    HW212122   5.772   4.594   2.541 -1.0701 -0.0623  0.3749
 3558SOL     OW12123   6.536   2.366   4.497  0.0432 -0.1177  0.2215
 3558SOL    HW112124   6.593   2.441   4.478 -0.6921  0.7512  1.2616
 3558SOL    HW212125   6.519   2.373   4.591 -1.1133 -0.8298  0.0851
 3559SOL     OW12126   4.901   6.558   2.046 -0.5146 -0.2796  0.2232
 3559SOL    HW112127   4.855   6.642   2.042  0.4690  0.2361 -0.8598
 3559SOL    HW212128   4.882   6.525   2.133 -2.4403  0.1782  0.0378
 3560SOL     OW12129   2.205   0.340   0.613  0.2044  0.8251 -0.5246
 3560SOL    HW112130   2.196   0.353   0.708 -1.1329  0.0153 -0.5198
 3560SOL    HW212131   2.237   0.425   0.581 -0.0351  1.3502  0.5566
 3561SOL     OW12132   4.954   1.301   3.006  0.3703  0.0421  0.2092
 3561SOL    HW112133   4.861   1.320   3.013  0.1970 -0.7354  0.1489
 3561SOL    HW212134   4.973   1.243   3.080  1.2849  1.8530  1.4885
 3562SOL     OW12135   2.436   7.103   2.850 -0.0631  0.2164 -0.0891
 3562SOL    HW112136   2.520   7.059   2.858  0.1799  0.7051  0.0884
 3562SOL    HW212137   2.379   7.058   2.912 -0.4158 -1.2182 -1.4020
 3563SOL     OW12138   3.236   2.566   3.648  0.2952 -0.0486  0.2172
 3563SOL    HW112139   3.179   2.624   3.698 -0.8729  0.3006 -1.4424
 3563SOL    HW212140   3.176   2.505   3.605  1.1611  0.2217 -1.4448
 3564SOL     OW12141   3.387   1.321   2.118  0.3174  0.4059  0.1280
 3564SOL    HW112142   3.332   1.253   2.080  0.7416  0.3045 -0.3184
 3564SOL    HW212143   3.405   1.290   2.207 -0.0181  0.2498  0.1436
 3565SOL     OW12144   6.904   5.883   5.873 -0.3085  0.1097 -0.3904
 3565SOL    HW112145   6.925   5.805   5.924 -1.6220  0.0023  0.0034
 3565SOL    HW212146   6.812   5.873   5.848 -0.6615  1.7566  0.0958
 3566SOL     OW12147   6.995   3.798   3.992 -0.1308 -0.2243  0.1894
 3566SOL    HW112148   6.941   3.730   3.951 -0.8976  0.2828  0.3609
 3566SOL    HW212149   7.085   3.770   3.973 -0.4227 -1.4820  0.5683
 3567SOL     OW12150   3.771   1.599   1.515  0.0403 -0.0645  0.1664
 3567SOL    HW112151   3.739   1.633   1.599  0.9443  1.3555 -0.0399
 3567SOL    HW212152   3.835   1.664   1.485  0.1966 -0.8645 -1.3293
 3568SOL     OW12153   0.161   5.709   0.079  0.1343 -0.2368  0.1696
 3568SOL    HW112154   0.247   5.751   0.079 -0.2619  0.5833  0.4612
 3568SOL    HW212155   0.104   5.770   0.124 -0.4805 -1.0447  0.5198
 3569SOL     OW12156   0.129   3.365   0.093 -0.0272 -0.0643  0.5180
 3569SOL    HW112157   0.138   3.272   0.070 -0.3391 -0.5304  2.1713
 3569SOL    HW212158   0.048   3.370   0.142 -0.3239  1.2206 -0.0656
 3570SOL     OW12159   5.669   0.595   5.740  0.3311  0.9302 -0.3042
 3570SOL    HW112160   5.610   0.564   5.808 -0.9243 -1.3538 -2.2728
 3570SOL    HW212161   5.751   0.547   5.755  0.2798  0.9225 -0.0432
 3571SOL     OW12162   1.926   1.744   4.009 -0.1953 -0.6914  0.3779
 3571SOL    HW112163   1.905   1.818   4.065 -1.1489 -0.1876 -0.6022
 3571SOL    HW212164   2.006   1.707   4.047  0.4080  0.9400  0.7956
 3572SOL     OW12165   1.194   5.036   0.219 -0.3076  0.6470  0.1558
 3572SOL    HW112166   1.116   5.001   0.263 -0.4946 -0.5512 -1.0732
 3572SOL    HW212167   1.201   4.986   0.138  0.9363  1.7148 -0.4430
 3573SOL     OW12168   3.573   6.939   1.950  0.3547  0.6228  0.1789
 3573SOL    HW112169   3.616   6.904   1.872  0.4509  2.3983 -0.6114
 3573SOL    HW212170   3.480   6.926   1.934  0.4346 -1.6148  1.1048
 3574SOL     OW12171   6.312   2.053   1.895  0.0732 -0.3682 -0.6383
 3574SOL    HW112172   6.302   2.086   1.806  0.8858  1.4325 -0.0991
 3574SOL    HW212173   6.407   2.043   1.906 -0.1282 -3.3379 -0.8804
 3575SOL     OW12174   2.145   5.875   5.995  0.1843 -0.1734 -0.2938
 3575SOL    HW112175   2.146   5.876   5.900  2.0275  1.8657 -0.3206
 3575SOL    HW212176   2.146   5.782   6.018  0.0208 -0.6963 -2.2301
 3576SOL     OW12177   1.223   1.122   0.677  0.0413 -0.3156  0.3345
 3576SOL    HW112178   1.251   1.113   0.586  1.0755  1.6714  0.4064
 3576SOL    HW212179   1.132   1.151   0.671  0.2126  0.1464 -0.0741
 3577SOL     OW12180   4.973   2.175   0.478 -0.0112  0.7078 -0.2346
 3577SOL    HW112181   4.992   2.132   0.394 -1.0306  1.3944 -0.8359
 3577SOL    HW212182   4.923   2.110   0.527 -1.5319  1.1473 -1.1363
 3578SOL     OW12183   0.403   5.607   4.537 -0.3014  0.0137  0.2438
 3578SOL    HW112184   0.345   5.546   4.582 -0.1235  1.2697  2.3276
 3578SOL    HW212185   0.435   5.664   4.606  0.8718  1.3970 -1.3638
 3579SOL     OW12186   1.366   6.490   5.409 -0.9578  0.4102 -0.1079
 3579SOL    HW112187   1.294   6.438   5.446 -1.5984  0.2720 -1.4985
 3579SOL    HW212188   1.445   6.445   5.438 -1.3496  1.0913  2.2440
 3580SOL     OW12189   0.833   5.591   4.935  0.1124 -0.0318  0.1833
 3580SOL    HW112190   0.776   5.612   4.861 -0.7131 -0.6952  0.6167
 3580SOL    HW212191   0.913   5.557   4.895 -0.5295 -0.8837 -0.4120
 3581SOL     OW12192   6.914   1.352   1.867 -0.1881  0.5515  0.2662
 3581SOL    HW112193   6.984   1.289   1.850 -1.6042 -1.2118  0.6900
 3581SOL    HW212194   6.902   1.398   1.784 -1.4483 -2.2208 -1.2189
 3582SOL     OW12195   5.486   2.542   3.757 -0.8613 -0.4064  0.0172
 3582SOL    HW112196   5.558   2.593   3.792  0.5019 -1.5252 -1.0700
 3582SOL    HW212197   5.426   2.531   3.831  1.0909 -1.2197  1.5376
 3583SOL     OW12198   0.219   1.760   6.600  0.2886  0.6350  0.1127
 3583SOL    HW112199   0.302   1.726   6.568 -0.7221 -0.8930 -1.0725
 3583SOL    HW212200   0.208   1.720   6.687  2.3076  3.5633  1.8986
 3584SOL     OW12201   2.704   5.738   1.092 -0.5313 -0.6623 -0.3833
 3584SOL    HW112202   2.668   5.663   1.139  0.9933 -1.2295 -0.0589
 3584SOL    HW212203   2.646   5.749   1.017 -0.9383 -2.0163 -0.3024
 3585SOL     OW12204   1.779   1.204   1.636 -0.6043  0.3811  0.5551
 3585SOL    HW112205   1.754   1.115   1.610  0.5005 -0.4587  2.2542
 3585SOL    HW212206   1.864   1.194   1.679 -1.1555  2.0321  2.1501
 3586SOL     OW12207   6.862   2.507   4.357  0.0882 -1.2552  0.8665
 3586SOL    HW112208   6.792   2.531   4.418  0.4547 -0.5872  1.0367
 3586SOL    HW212209   6.910   2.589   4.343 -0.1389 -1.3370 -0.5195
 3587SOL     OW12210   0.949   3.600   4.523  0.3856  0.0153 -0.0197
 3587SOL    HW112211   1.025   3.653   4.500  1.5950 -1.4785  0.4277
 3587SOL    HW212212   0.972   3.511   4.495 -1.5081 -0.3547 -0.5729
 3588SOL     OW12213   2.039   5.006   0.276  0.5881  0.0223 -0.2107
 3588SOL    HW112214   1.961   5.029   0.325  0.5431 -0.6133  0.0308
 3588SOL    HW212215   2.101   4.976   0.343  1.5419  1.8030 -0.2397
 3589SOL     OW12216   0.981   2.793   3.666 -0.4867  0.1308 -0.0302
 3589SOL    HW112217   0.942   2.878   3.643  0.8284  0.4255 -1.3234
 3589SOL    HW212218   1.001   2.752   3.582  1.2385 -0.3391  0.5562
 3590SOL     OW12219   1.906   2.586   1.452 -0.6058 -0.0731 -0.5567
 3590SOL    HW112220   1.927   2.521   1.520 -0.1817 -0.2809 -0.8830
 3590SOL    HW212221   1.868   2.659   1.501  4.9508  2.4317  0.9003
 3591SOL     OW12222   4.060   5.198   3.748  0.2779  0.6061  0.4440
 3591SOL    HW112223   4.050   5.292   3.735 -1.2699  0.5954  1.2752
 3591SOL    HW212224   4.068   5.188   3.843  0.5567 -0.0942  0.3550
 3592SOL     OW12225   1.843   5.656   3.513 -0.3047  0.2718  0.2272
 3592SOL    HW112226   1.816   5.740   3.551  0.6056  0.2869  0.8921
 3592SOL    HW212227   1.888   5.679   3.432 -2.5928  0.2182 -1.1352
 3593SOL     OW12228   0.315   6.328   5.189 -0.5259 -0.0387 -0.5593
 3593SOL    HW112229   0.301   6.254   5.247  0.8372  0.6141  0.6423
 3593SOL    HW212230   0.243   6.388   5.208  0.3567  0.5384  1.0909
 3594SOL     OW12231   1.869   1.253   1.148 -0.0397  0.2549  0.1938
 3594SOL    HW112232   1.778   1.281   1.137 -0.2954 -1.3212 -2.4664
 3594SOL    HW212233   1.883   1.190   1.078  2.9113 -0.1209  1.0134
 3595SOL     OW12234   2.396   6.801   3.619  0.1355 -0.3341 -0.3648
 3595SOL    HW112235   2.477   6.833   3.580  0.2315 -0.2209 -0.0714
 3595SOL    HW212236   2.393   6.840   3.706 -0.0143 -0.6876 -0.2085
 3596SOL     OW12237   5.009   4.913   2.311  0.0244 -0.7108  0.5628
 3596SOL    HW112238   5.006   5.008   2.310  2.0036 -0.5726 -1.7363
 3596SOL    HW212239   4.922   4.886   2.281 -0.0333  0.4481 -0.3964
 3597SOL     OW12240   0.012   4.783   5.771 -0.4942 -0.4971  0.3012
 3597SOL    HW112241   0.062   4.719   5.720 -0.7296 -0.0942 -0.4636
 3597SOL    HW212242   0.055   4.785   5.856  0.1499 -0.9127 -0.0043
 3598SOL     OW12243   1.381   2.797   1.618  0.0585  0.1473 -0.3480
 3598SOL    HW112244   1.440   2.741   1.568  0.1161  0.0198 -0.1370
 3598SOL    HW212245   1.415   2.794   1.707  0.2417  0.7599 -0.3932
 3599SOL     OW12246   1.449   5.590   6.451  0.3727  0.0522 -0.4595
 3599SOL    HW112247   1.463   5.511   6.502  0.6537  1.2405  1.4269
 3599SOL    HW212248   1.376   5.634   6.495  0.6331  1.1438 -1.0785
 3600SOL     OW12249   0.016   3.478   3.253 -0.0949  0.4183 -0.0760
 3600SOL    HW112250   0.047   3.517   3.335 -1.7372  0.0999  0.7350
 3600SOL    HW212251   0.020   3.383   3.268 -1.9506  0.3653  0.2844
 3601SOL     OW12252   2.745   2.406   5.126 -0.5254  0.1600  0.4031
 3601SOL    HW112253   2.683   2.399   5.198  0.7148  2.7297  1.8474
 3601SOL    HW212254   2.727   2.491   5.087  0.3574 -0.2054 -0.8597
 3602SOL     OW12255   2.681   4.999   3.967  0.0494  0.6626 -0.1555
 3602SOL    HW112256   2.636   5.076   3.931  0.6686  1.2003  0.2053
 3602SOL    HW212257   2.613   4.952   4.015 -0.7463  0.0625 -1.7849
 3603SOL     OW12258   6.535   5.953   2.635  0.2272  0.3457  0.2321
 3603SOL    HW112259   6.579   6.001   2.565  0.6850  2.2571  1.7426
 3603SOL    HW212260   6.603   5.898   2.673  0.4312  0.6695  0.3359
 3604SOL     OW12261   1.579   6.943   6.050 -0.0765 -0.2672  0.2053
 3604SOL    HW112262   1.535   6.867   6.088 -0.6340 -0.6984 -1.2346
 3604SOL    HW212263   1.532   7.018   6.086 -0.0627 -0.6176  0.9838
 3605SOL     OW12264   1.189   7.108   1.212  0.0698  0.0574  0.1584
 3605SOL    HW112265   1.119   7.148   1.262 -0.0077 -0.8980  0.8517
 3605SOL    HW212266   1.248   7.072   1.279  1.3880  1.1136 -0.3996
 3606SOL     OW12267   6.908   7.015   0.521  0.6103  0.1350 -0.1649
 3606SOL    HW112268   6.892   6.969   0.439 -0.3363  0.2408 -0.0568
 3606SOL    HW212269   6.836   7.077   0.528  1.4103  1.0557  0.1045
 3607SOL     OW12270   5.265   2.336   5.314  0.2255 -0.3374  0.0699
 3607SOL    HW112271   5.304   2.371   5.234  0.8025  0.3974  0.6604
 3607SOL    HW212272   5.184   2.294   5.285 -0.9362  2.1871 -0.5748
 3608SOL     OW12273   1.089   4.803   1.451  0.0087  0.1577  0.3833
 3608SOL    HW112274   1.067   4.896   1.442 -0.2415 -0.0122 -1.0975
 3608SOL    HW212275   1.007   4.762   1.481 -0.4733  0.1564 -0.8656
 3609SOL     OW12276   0.975   5.246   0.151 -0.1927 -0.0016  0.3187
 3609SOL    HW112277   0.965   5.156   0.182 -1.8416  0.5949  1.7134
 3609SOL    HW212278   0.910   5.255   0.082  1.2972 -0.3968 -1.1892
 3610SOL     OW12279   0.349   5.965   3.869  0.0148 -0.4897  0.0139
 3610SOL    HW112280   0.259   5.994   3.850  0.3636 -0.9682 -2.7340
 3610SOL    HW212281   0.365   5.996   3.958 -2.0188  1.7454 -0.2822
 3611SOL     OW12282   5.451   1.000   2.331 -0.1780 -0.3370  0.4816
 3611SOL    HW112283   5.519   0.953   2.284 -1.6192 -1.5765 -0.4761
 3611SOL    HW212284   5.447   0.959   2.417  0.5814  0.0729  0.7238
 3612SOL     OW12285   2.923   6.270   4.533 -0.0438  0.3199 -0.6680
 3612SOL    HW112286   3.017   6.281   4.549  0.0842 -0.7340 -0.6223
 3612SOL    HW212287   2.887   6.357   4.544  0.3505  0.1726  3.3004
 3613SOL     OW12288   0.861   4.579   3.887  0.1539  0.5836  0.1063
 3613SOL    HW112289   0.929   4.634   3.927 -0.8014  1.0836  1.0936
 3613SOL    HW212290   0.867   4.496   3.935 -2.4431  1.8818  3.0272
 3614SOL     OW12291   6.316   5.616   6.849 -0.7491 -0.2199 -0.8368
 3614SOL    HW112292   6.337   5.688   6.909 -0.9452 -0.0081 -1.0202
 3614SOL    HW212293   6.264   5.555   6.902  0.7081 -0.9924 -0.2348
 3615SOL     OW12294   0.495   5.607   6.168 -0.2227  0.2912 -0.0653
 3615SOL    HW112295   0.420   5.662   6.143  0.6086  0.9260 -1.2462
 3615SOL    HW212296   0.548   5.603   6.089  0.6003 -0.8090  0.5324
 3616SOL     OW12297   2.427   4.959   6.016  0.1512 -0.1212  0.3805
 3616SOL    HW112298   2.482   5.010   6.076  1.0792  0.1056 -0.6358
 3616SOL    HW212299   2.426   4.871   6.054  0.4768  0.0924  0.8934
 3617SOL     OW12300   5.059   4.649   4.546 -0.1537 -0.1950 -0.5264
 3617SOL    HW112301   5.131   4.633   4.484 -1.4174  0.9421 -2.4001
 3617SOL    HW212302   4.980   4.637   4.494 -1.2865  0.4353  0.9897
 3618SOL     OW12303   4.835   4.720   1.822 -0.1989  0.3275 -0.1164
 3618SOL    HW112304   4.829   4.814   1.804 -2.1433  0.3049  0.2454
 3618SOL    HW212305   4.786   4.708   1.903  0.4040 -0.9565  0.0771
 3619SOL     OW12306   1.767   0.158   3.500 -0.2121  0.4262  0.3071
 3619SOL    HW112307   1.680   0.198   3.503 -0.7520 -0.4693 -1.6178
 3619SOL    HW212308   1.777   0.115   3.584 -2.8282 -1.7645 -0.3649
 3620SOL     OW12309   5.467   4.434   0.324  0.2115 -0.5241  0.1403
 3620SOL    HW112310   5.428   4.392   0.400 -0.4948  0.8877  0.5883
 3620SOL    HW212311   5.410   4.410   0.251 -2.1663  2.2606  0.9323
 3621SOL     OW12312   5.191   3.158   3.904 -0.0418  0.0833  0.7244
 3621SOL    HW112313   5.098   3.137   3.912  0.1812 -1.6122 -0.6133
 3621SOL    HW212314   5.208   3.155   3.810  1.2940  0.7896  0.9204
 3622SOL     OW12315   3.732   6.413   1.290 -0.6446  0.2704  0.1735
 3622SOL    HW112316   3.706   6.505   1.287 -0.8219  0.1997 -0.9929
 3622SOL    HW212317   3.714   6.386   1.380 -3.9843  0.4080 -0.3372
 3623SOL     OW12318   4.790   1.333   5.682  0.1325 -0.1095 -0.0414
 3623SOL    HW112319   4.821   1.262   5.625  0.3259 -0.6383  0.6973
 3623SOL    HW212320   4.741   1.288   5.751  1.3061  0.3474  1.1368
 3624SOL     OW12321   4.720   3.466   0.160 -0.3842  0.4612 -0.1766
 3624SOL    HW112322   4.800   3.449   0.110  0.2354 -1.1825  1.2962
 3624SOL    HW212323   4.687   3.549   0.125  0.6905  0.0191 -2.4099
 3625SOL     OW12324   2.001   1.057   6.220 -0.1058  0.3878 -0.1100
 3625SOL    HW112325   1.995   1.142   6.176  0.1518 -0.5772 -2.1282
 3625SOL    HW212326   1.940   1.001   6.173  0.2669 -0.7454  0.7029
 3626SOL     OW12327   6.933   3.428   2.588  0.1907  0.9119 -0.0688
 3626SOL    HW112328   6.893   3.369   2.652  0.5612  0.4182 -0.2837
 3626SOL    HW212329   7.026   3.425   2.607  0.3972  0.1783 -1.0845
 3627SOL     OW12330   2.982   5.956   3.495 -0.1271 -0.7979  0.0844
 3627SOL    HW112331   2.943   5.886   3.444 -0.9374 -0.7216  0.5730
 3627SOL    HW212332   3.034   5.911   3.562  0.2985 -0.9102 -0.3219
 3628SOL     OW12333   1.429   3.192   4.694 -0.7764 -0.0259 -0.2817
 3628SOL    HW112334   1.492   3.247   4.740  1.3455 -0.2781 -2.6298
 3628SOL    HW212335   1.402   3.127   4.759  0.2947  0.9569  1.2161
 3629SOL     OW12336   1.473   1.852   3.647  0.1150  0.0021 -0.6825
 3629SOL    HW112337   1.492   1.762   3.620  1.2474  0.2699 -0.8507
 3629SOL    HW212338   1.381   1.865   3.625 -0.6003 -1.6991  1.0357
 3630SOL     OW12339   6.896   4.204   5.656  0.4310 -0.1247 -0.4670
 3630SOL    HW112340   6.841   4.274   5.621  0.5490  0.7197  0.9878
 3630SOL    HW212341   6.897   4.218   5.750  2.0487 -0.9287 -0.3282
 3631SOL     OW12342   2.733   2.869   4.661  0.2365  0.6393 -0.4315
 3631SOL    HW112343   2.648   2.887   4.622 -0.6378 -2.4473 -0.1704
 3631SOL    HW212344   2.762   2.954   4.696 -2.0947  2.0322 -1.6501
 3632SOL     OW12345   3.419   2.909   5.465  0.0954  0.0726 -0.4110
 3632SOL    HW112346   3.395   2.900   5.372 -2.1569 -0.5876  0.1682
 3632SOL    HW212347   3.353   2.858   5.511  1.5096 -0.0697  1.5493
 3633SOL     OW12348   4.691   5.198   1.629  0.0456  0.1706 -0.3923
 3633SOL    HW112349   4.642   5.179   1.549 -1.7363 -0.1360  0.6995
 3633SOL    HW212350   4.629   5.178   1.700  1.1380  1.5651  1.0351
 3634SOL     OW12351   5.047   2.674   6.669 -0.3826  0.0327  0.0592
 3634SOL    HW112352   5.000   2.595   6.695  0.1761 -0.4140 -0.2901
 3634SOL    HW212353   5.081   2.656   6.582 -1.9246  1.3916 -0.8823
 3635SOL     OW12354   2.284   6.074   5.077  0.0562 -1.1484  0.1559
 3635SOL    HW112355   2.219   6.059   5.146  0.2825 -0.0798  0.6256
 3635SOL    HW212356   2.234   6.111   5.004 -0.0454 -1.4395  0.0770
 3636SOL     OW12357   6.593   4.390   0.552 -0.8133 -0.3967 -0.1624
 3636SOL    HW112358   6.602   4.403   0.457 -1.6831  0.4136 -0.1505
 3636SOL    HW212359   6.571   4.476   0.586  1.2083 -0.2979  1.0413
 3637SOL     OW12360   4.065   3.107   2.437 -0.2079 -0.0030 -0.0397
 3637SOL    HW112361   3.994   3.055   2.399 -1.0609 -0.1262  1.6022
 3637SOL    HW212362   4.052   3.195   2.403  0.1748 -0.4702 -1.4444
 3638SOL     OW12363   3.046   6.548   0.508  0.5922 -0.6757  0.2361
 3638SOL    HW112364   2.967   6.531   0.458  0.8823  0.3669 -0.5997
 3638SOL    HW212365   3.020   6.534   0.599 -0.3721 -0.9734 -0.0766
 3639SOL     OW12366   5.867   5.559   5.716  0.1179 -0.6683  0.0297
 3639SOL    HW112367   5.874   5.535   5.624  0.8734 -1.2472  0.2294
 3639SOL    HW212368   5.774   5.550   5.736 -0.2383  0.5082 -0.9426
 3640SOL     OW12369   3.946   0.659   0.870 -0.6673  0.4002 -0.1834
 3640SOL    HW112370   3.999   0.695   0.799  0.1357  0.8485  0.6133
 3640SOL    HW212371   3.915   0.735   0.919  0.2798  0.0750  0.9785
 3641SOL     OW12372   5.646   6.883   6.706  0.5326  0.0736 -0.6665
 3641SOL    HW112373   5.741   6.892   6.700  0.5613 -0.1833 -0.6012
 3641SOL    HW212374   5.612   6.967   6.675  0.7397 -0.3070 -2.0066
 3642SOL     OW12375   1.135   3.768   0.991 -0.3361  0.3124  0.0408
 3642SOL    HW112376   1.122   3.765   0.896  0.6633 -0.5185 -0.0946
 3642SOL    HW212377   1.131   3.860   1.013  0.0672  0.5780 -0.9194
 3643SOL     OW12378   3.800   5.021   4.572 -0.4339  0.0920  0.3438
 3643SOL    HW112379   3.849   4.966   4.511 -0.4261 -0.1392  0.5583
 3643SOL    HW212380   3.741   4.960   4.617 -0.6395  0.3067  0.3656
 3644SOL     OW12381   5.100   3.970   6.608  0.2197  0.2092 -0.5789
 3644SOL    HW112382   5.130   4.057   6.583  0.3980  0.7259  1.2302
 3644SOL    HW212383   5.090   3.975   6.703 -2.2573 -0.9893 -0.6928
 3645SOL     OW12384   3.954   2.783   1.613  0.1423 -0.2531  0.0163
 3645SOL    HW112385   3.878   2.823   1.571  0.2001 -0.6817 -0.4967
 3645SOL    HW212386   4.024   2.790   1.548  0.1201 -1.3065 -0.1332
 3646SOL     OW12387   6.603   4.939   1.759 -0.0872  0.0793 -0.2801
 3646SOL    HW112388   6.673   4.911   1.818  1.8312  2.9672 -0.9768
 3646SOL    HW212389   6.571   5.021   1.796 -1.0361  0.3394 -1.5967
 3647SOL     OW12390   4.536   5.446   3.399  0.6752  0.0906 -0.7778
 3647SOL    HW112391   4.444   5.428   3.420  0.2543  0.8560 -1.8757
 3647SOL    HW212392   4.567   5.365   3.358 -0.0254  0.4180 -1.9860
 3648SOL     OW12393   3.016   3.319   5.227 -0.3724  0.0925  0.3191
 3648SOL    HW112394   2.927   3.284   5.230 -0.0991 -0.8293 -1.4215
 3648SOL    HW212395   3.004   3.414   5.222 -1.2321  0.0192  0.7938
 3649SOL     OW12396   4.343   6.364   3.163 -0.2198  0.0151 -0.3213
 3649SOL    HW112397   4.328   6.443   3.111  1.2092  0.5161 -0.0292
 3649SOL    HW212398   4.398   6.309   3.107  1.4167  0.5999  0.6272
 3650SOL     OW12399   3.364   3.591   3.150 -0.3283  0.4642 -0.3024
 3650SOL    HW112400   3.331   3.678   3.177 -0.1669 -0.0636  1.7599
 3650SOL    HW212401   3.318   3.530   3.207 -0.1414 -0.8016 -1.4665
 3651SOL     OW12402   3.962   5.104   2.597  0.8894  0.0220  0.1478
 3651SOL    HW112403   3.873   5.109   2.631  1.3041 -0.2150  1.3213
 3651SOL    HW212404   3.993   5.194   2.597  0.6610  0.1020 -0.2404
 3652SOL     OW12405   3.601   2.288   2.422 -0.4557 -0.1329  0.2980
 3652SOL    HW112406   3.635   2.199   2.429 -1.9453 -0.7349  0.3173
 3652SOL    HW212407   3.506   2.278   2.430 -0.7682  1.2960 -1.0139
 3653SOL     OW12408   5.798   3.629   5.824 -0.3737  0.6783 -0.2455
 3653SOL    HW112409   5.746   3.631   5.744 -0.8158  0.4854  0.0319
 3653SOL    HW212410   5.797   3.720   5.856  0.3460  0.8876 -0.7962
 3654SOL     OW12411   4.174   5.858   1.645  0.1000  0.4815 -0.1383
 3654SOL    HW112412   4.093   5.806   1.647 -0.7834  1.8306  1.0201
 3654SOL    HW212413   4.192   5.871   1.552  1.3978 -3.3649 -0.5926
 3655SOL     OW12414   1.689   4.519   0.712 -0.1590  0.3128 -0.7778
 3655SOL    HW112415   1.602   4.530   0.674 -1.7699 -1.8670  1.8552
 3655SOL    HW212416   1.704   4.600   0.761  0.5098  1.7452 -3.1814
 3656SOL     OW12417   4.977   0.656   6.550 -0.4803  0.6938  0.0568
 3656SOL    HW112418   5.072   0.652   6.538 -0.2056 -0.3959  2.1882
 3656SOL    HW212419   4.943   0.589   6.490  0.3154 -0.4920  0.8853
 3657SOL     OW12420   4.745   4.341   6.046  0.1617  0.0441 -0.0358
 3657SOL    HW112421   4.811   4.324   5.978 -0.5088 -0.2839 -0.6110
 3657SOL    HW212422   4.773   4.424   6.086  1.5842 -0.6765  0.5403
 3658SOL     OW12423   0.845   3.231   1.931  0.2084 -0.5994 -0.1796
 3658SOL    HW112424   0.818   3.259   1.843  0.7829  1.4950  0.2527
 3658SOL    HW212425   0.939   3.215   1.923  0.1108 -1.1837 -0.1306
 3659SOL     OW12426   5.489   3.783   5.954  0.1187  0.2841  0.6544
 3659SOL    HW112427   5.474   3.690   5.969  2.1105 -0.2878 -0.5807
 3659SOL    HW212428   5.532   3.814   6.034  1.4457 -0.3749  0.2036
 3660SOL     OW12429   6.337   5.097   4.900  0.2784  0.4429  0.0607
 3660SOL    HW112430   6.285   5.058   4.970  0.1993  0.8385  0.2301
 3660SOL    HW212431   6.273   5.122   4.834  0.4373 -0.7106 -0.5449
 3661SOL     OW12432   2.527   0.419   0.103  0.2438 -0.1704 -0.5704
 3661SOL    HW112433   2.466   0.365   0.153 -0.7591 -0.3597 -1.9482
 3661SOL    HW212434   2.484   0.432   0.018  0.7272  2.2454 -0.5264
 3662SOL     OW12435   0.266   0.581   4.103 -0.0928 -0.0812  0.2499
 3662SOL    HW112436   0.177   0.545   4.099 -1.2872  2.4106  1.5121
 3662SOL    HW212437   0.289   0.577   4.196  0.6918  0.1856  0.0728
 3663SOL     OW12438   6.654   6.204   5.376  0.3283 -0.0868  0.1702
 3663SOL    HW112439   6.577   6.206   5.433  0.0375 -0.4816 -0.2065
 3663SOL    HW212440   6.726   6.179   5.434  0.2702  0.7661  0.6274
 3664SOL     OW12441   2.497   1.940   4.341  0.3757 -0.0859 -0.0288
 3664SOL    HW112442   2.418   1.990   4.318 -0.2526 -0.6106  0.9308
 3664SOL    HW212443   2.569   1.992   4.305 -0.3960  0.4077 -0.9247
 3665SOL     OW12444   0.554   5.759   5.107  0.1922  0.2569  0.0055
 3665SOL    HW112445   0.631   5.764   5.165 -1.6493 -0.8934  2.7676
 3665SOL    HW212446   0.534   5.850   5.086  1.2802  0.6793  0.6920
 3666SOL     OW12447   2.043   6.855   2.333  0.5063 -0.4326  0.3044
 3666SOL    HW112448   2.016   6.907   2.409 -0.6269  0.7814 -0.8851
 3666SOL    HW212449   2.073   6.919   2.269 -0.7946 -1.2054 -1.1540
 3667SOL     OW12450   0.227   0.734   0.810 -0.2695  0.5262  0.3781
 3667SOL    HW112451   0.307   0.691   0.837 -0.2742  0.4170  0.2196
 3667SOL    HW212452   0.158   0.694   0.864 -0.1177  1.1396  1.0364
 3668SOL     OW12453   5.725   2.725   2.633 -0.0137 -0.1428 -1.0087
 3668SOL    HW112454   5.645   2.752   2.679  0.7548  0.6532 -0.0936
 3668SOL    HW212455   5.701   2.644   2.588 -1.2143 -0.1475 -0.3903
 3669SOL     OW12456   2.321   3.289   1.752  0.1966  0.2975 -0.4050
 3669SOL    HW112457   2.303   3.363   1.695 -1.2111 -0.9530 -1.6674
 3669SOL    HW212458   2.238   3.273   1.797  1.0484  0.7271  1.4130
 3670SOL     OW12459   6.529   3.441   6.097  0.5298  0.2812  0.1792
 3670SOL    HW112460   6.611   3.395   6.081  1.2951  1.4739  0.5546
 3670SOL    HW212461   6.510   3.424   6.190 -0.2348 -0.8771 -0.1678
 3671SOL     OW12462   1.578   1.797   5.416 -0.1385 -0.5721 -0.2491
 3671SOL    HW112463   1.582   1.820   5.323 -1.2229 -0.0412 -0.1914
 3671SOL    HW212464   1.605   1.706   5.420 -0.5709 -0.7554 -1.1617
 3672SOL     OW12465   4.372   4.834   6.960  0.2761 -0.4560  0.5284
 3672SOL    HW112466   4.414   4.771   6.901 -1.2243 -0.6814 -0.3246
 3672SOL    HW212467   4.297   4.866   6.912 -1.2173 -0.9174  2.4274
 3673SOL     OW12468   6.762   2.820   2.899 -0.1039 -0.7474 -0.1450
 3673SOL    HW112469   6.676   2.854   2.923  0.3759  0.7139 -0.4077
 3673SOL    HW212470   6.747   2.727   2.882 -1.2499 -0.9537  1.6903
 3674SOL     OW12471   1.777   4.054   0.920 -0.2279  0.1221 -0.4383
 3674SOL    HW112472   1.693   4.038   0.964 -1.1390  0.5843 -1.9403
 3674SOL    HW212473   1.768   4.142   0.883  1.1077  0.3589 -0.2391
 3675SOL     OW12474   5.634   6.244   2.065 -0.0343  0.4155 -0.5408
 3675SOL    HW112475   5.674   6.326   2.035  2.0786 -0.1258  0.6095
 3675SOL    HW212476   5.648   6.244   2.160 -0.6090 -0.9697 -0.4362
 3676SOL     OW12477   3.303   3.381   2.147  0.4297  0.1617 -0.1935
 3676SOL    HW112478   3.225   3.348   2.102 -1.8144  0.2138  3.2779
 3676SOL    HW212479   3.317   3.320   2.219  2.3855  1.2882  0.4654
 3677SOL     OW12480   3.041   1.391   1.702  0.3476 -0.1035  0.1653
 3677SOL    HW112481   3.008   1.411   1.614 -1.2342 -0.4390  0.6513
 3677SOL    HW212482   3.099   1.317   1.690 -1.3510 -1.4022 -0.3817
 3678SOL     OW12483   1.808   0.988   4.620 -0.4692 -0.1800  0.2854
 3678SOL    HW112484   1.832   0.896   4.610 -1.5230 -0.5547  0.9693
 3678SOL    HW212485   1.807   1.002   4.715  2.3694  1.3095  0.1883
 3679SOL     OW12486   2.889   4.207   0.756 -0.2702 -0.4759  0.2671
 3679SOL    HW112487   2.951   4.190   0.827  1.7987 -1.5198 -1.6589
 3679SOL    HW212488   2.820   4.142   0.768  1.9984 -3.3198 -0.7278
 3680SOL     OW12489   1.088   2.012   1.020 -0.3240 -0.4622  0.6691
 3680SOL    HW112490   1.079   2.101   0.986 -0.7787 -0.0045  1.9406
 3680SOL    HW212491   1.158   1.973   0.967  0.4053  0.8904  0.5956
 3681SOL     OW12492   3.920   6.349   1.525  0.0883  0.3302  0.3883
 3681SOL    HW112493   3.998   6.373   1.475  0.8902 -0.9303  1.0041
 3681SOL    HW212494   3.909   6.420   1.588  0.8048  0.4624  0.3723
 3682SOL     OW12495   6.213   3.314   1.355  0.5941  0.2332 -0.2272
 3682SOL    HW112496   6.214   3.218   1.349 -0.6425  0.2032 -0.2151
 3682SOL    HW212497   6.234   3.344   1.267  1.7466 -0.0242 -0.0622
 3683SOL     OW12498   3.921   4.522   4.157  0.7446 -0.0684  0.0350
 3683SOL    HW112499   3.833   4.553   4.136  1.3312  1.1621 -0.7479
 3683SOL    HW212500   3.922   4.515   4.252  0.4470  2.0930  0.2540
 3684SOL     OW12501   6.653   0.990   3.254  0.0707 -0.1170  0.3675
 3684SOL    HW112502   6.656   1.070   3.306  2.5169 -0.6003  1.0867
 3684SOL    HW212503   6.563   0.987   3.219 -0.5624  2.0493  1.6504
 3685SOL     OW12504   0.662   1.976   4.020  0.0956 -0.2335 -0.4083
 3685SOL    HW112505   0.668   1.898   3.966  0.1663 -0.9456  0.6028
 3685SOL    HW212506   0.742   1.975   4.073  0.0912  0.5238 -0.3682
 3686SOL     OW12507   5.209   4.245   2.030  0.1766 -0.2598 -0.0498
 3686SOL    HW112508   5.246   4.160   2.005  0.2810 -0.2252 -0.0129
 3686SOL    HW212509   5.223   4.250   2.124  2.2404  0.7985 -0.3603
 3687SOL     OW12510   0.818   1.636   2.910 -0.3968 -0.5640  0.1619
 3687SOL    HW112511   0.776   1.720   2.929  1.2210  0.2223  0.4313
 3687SOL    HW212512   0.771   1.603   2.834 -0.8359  0.7523 -0.1699
 3688SOL     OW12513   1.810   3.665   2.435 -0.2708 -0.2398 -0.4538
 3688SOL    HW112514   1.892   3.688   2.391 -0.1719 -0.2744 -0.2888
 3688SOL    HW212515   1.805   3.724   2.510 -0.1000 -0.6380 -0.1255
 3689SOL     OW12516   3.955   6.935   0.470 -0.7432  0.4279 -0.2562
 3689SOL    HW112517   3.939   6.843   0.492  0.4388  0.2795  0.0658
 3689SOL    HW212518   4.022   6.931   0.402 -0.2885  1.0710  0.1448
 3690SOL     OW12519   5.014   6.703   1.670 -0.9122  0.1499  0.2339
 3690SOL    HW112520   5.030   6.652   1.590 -3.2135  1.2980 -1.0799
 3690SOL    HW212521   4.968   6.641   1.728 -1.9809  0.1273 -0.5932
 3691SOL     OW12522   3.297   6.040   1.475  0.3900 -0.5739 -0.3468
 3691SOL    HW112523   3.313   6.064   1.383  2.0996  3.7147  0.8047
 3691SOL    HW212524   3.212   6.078   1.495  0.6058 -0.3312  0.1316
 3692SOL     OW12525   0.276   0.609   3.240 -0.6250 -0.2932 -0.0926
 3692SOL    HW112526   0.276   0.702   3.263 -0.0482 -0.1194 -0.7387
 3692SOL    HW212527   0.368   0.590   3.221 -0.4668 -1.3960  1.5514
 3693SOL     OW12528   4.777   3.836   0.868 -0.0841 -0.0246  0.6977
 3693SOL    HW112529   4.807   3.758   0.822 -1.8556  0.5755 -1.7287
 3693SOL    HW212530   4.849   3.899   0.857  0.1752 -0.4129  0.0933
 3694SOL     OW12531   3.498   0.465   0.801 -0.3164  0.0695  0.0670
 3694SOL    HW112532   3.580   0.452   0.848 -0.7799  1.0764  1.1916
 3694SOL    HW212533   3.493   0.559   0.788 -0.8833 -0.0667 -0.7875
 3695SOL     OW12534   4.803   0.220   0.464 -0.0758  0.2081 -0.1791
 3695SOL    HW112535   4.817   0.230   0.558 -0.5922  0.3809 -0.1170
 3695SOL    HW212536   4.882   0.256   0.424 -0.5904  1.7669  0.1423
 3696SOL     OW12537   6.850   5.902   4.214 -0.5409 -0.5124 -0.2812
 3696SOL    HW112538   6.871   5.809   4.207 -0.1479 -0.6444  1.8883
 3696SOL    HW212539   6.854   5.935   4.124  0.4429 -2.3431 -0.9527
 3697SOL     OW12540   3.490   6.919   5.317 -0.6598 -0.5915  0.7038
 3697SOL    HW112541   3.420   6.982   5.338 -1.2064 -0.7491 -0.5850
 3697SOL    HW212542   3.520   6.888   5.403 -2.6881 -1.0791  1.2994
 3698SOL     OW12543   0.260   4.602   5.698 -0.0077 -0.0032 -0.3605
 3698SOL    HW112544   0.278   4.600   5.604 -0.2736 -0.7356 -0.4086
 3698SOL    HW212545   0.345   4.623   5.739  0.4869 -1.2183 -0.6965
 3699SOL     OW12546   6.577   6.107   4.839 -0.6194  0.1150  0.6485
 3699SOL    HW112547   6.588   6.187   4.788 -0.8168  0.5346  1.2551
 3699SOL    HW212548   6.666   6.075   4.854 -0.4651  0.9577  1.5585
 3700SOL     OW12549   4.128   3.851   3.272  0.1499 -0.2091 -0.0032
 3700SOL    HW112550   4.099   3.920   3.331  0.7969  0.6252 -0.6465
 3700SOL    HW212551   4.061   3.845   3.205  0.0506 -0.2721  0.1016
 3701SOL     OW12552   6.038   3.775   0.885  0.0266 -0.1309  0.6436
 3701SOL    HW112553   5.965   3.793   0.826  1.2776  0.2134 -0.8697
 3701SOL    HW212554   6.018   3.825   0.964 -0.9672  0.6316 -0.0669
 3702SOL     OW12555   4.890   3.882   1.451  0.1595 -0.4871 -0.3328
 3702SOL    HW112556   4.934   3.910   1.371 -0.6129 -0.1319 -0.6442
 3702SOL    HW212557   4.958   3.885   1.518 -0.1296  3.7073  0.0120
 3703SOL     OW12558   1.958   2.803   6.100 -0.2705 -0.3731  0.0033
 3703SOL    HW112559   2.026   2.860   6.135  0.3803 -0.6249 -0.8147
 3703SOL    HW212560   2.005   2.742   6.043 -1.2914  0.1521 -1.4522
 3704SOL     OW12561   6.640   4.885   1.125  0.2787 -0.3963 -0.0443
 3704SOL    HW112562   6.572   4.841   1.177  0.3822 -1.0523 -0.4567
 3704SOL    HW212563   6.593   4.927   1.054  0.0833  0.8762  0.7929
 3705SOL     OW12564   1.352   1.313   0.132  0.0390  0.3509  0.1851
 3705SOL    HW112565   1.436   1.358   0.136  0.7451 -0.9757  1.3477
 3705SOL    HW212566   1.292   1.368   0.183 -0.2097  2.0169 -1.7841
 3706SOL     OW12567   6.847   5.680   5.007 -0.8025 -0.1582  0.2084
 3706SOL    HW112568   6.836   5.631   4.926 -0.2512  0.0744 -0.0163
 3706SOL    HW212569   6.759   5.688   5.044 -1.0685 -0.1748 -0.4208
 3707SOL     OW12570   3.137   1.596   0.950 -0.3285 -0.3223 -0.5161
 3707SOL    HW112571   3.121   1.527   0.886 -1.1573 -0.1463 -0.5107
 3707SOL    HW212572   3.185   1.663   0.902  2.0983 -1.6404 -0.0779
 3708SOL     OW12573   6.257   0.577   2.263 -0.0284 -0.5882  0.0722
 3708SOL    HW112574   6.176   0.602   2.306  0.0434 -1.3650  0.6882
 3708SOL    HW212575   6.244   0.599   2.171 -1.2541 -1.4537  0.0247
 3709SOL     OW12576   5.137   1.245   7.043  0.8360  0.1302  0.2201
 3709SOL    HW112577   5.188   1.239   6.963 -0.1702  0.0275 -0.4358
 3709SOL    HW212578   5.108   1.155   7.060 -1.2275  0.5196 -0.8598
 3710SOL     OW12579   2.219   4.451   5.922 -0.4860  0.3714 -0.4598
 3710SOL    HW112580   2.167   4.441   5.843  0.2053  1.4281 -1.0606
 3710SOL    HW212581   2.226   4.362   5.957 -1.0107 -0.0651 -1.4370
 3711SOL     OW12582   3.135   0.580   4.346  0.4910 -0.2202  0.4820
 3711SOL    HW112583   3.090   0.545   4.269 -0.3554 -2.4134  1.8673
 3711SOL    HW212584   3.224   0.548   4.339  0.3506 -0.6240  0.5159
 3712SOL     OW12585   0.311   2.353   4.425 -0.8919  0.9243  0.4056
 3712SOL    HW112586   0.217   2.354   4.442 -0.5808  0.4908  2.3899
 3712SOL    HW212587   0.339   2.444   4.438 -0.9819  0.9863  0.1653
 3713SOL     OW12588   2.157   3.216   4.839 -0.3477  0.2815 -0.2424
 3713SOL    HW112589   2.233   3.162   4.860 -0.9193 -0.9050 -1.1511
 3713SOL    HW212590   2.083   3.171   4.881 -0.4996  1.7770  1.2050
 3714SOL     OW12591   4.616   3.591   6.832 -0.0138  0.2659 -0.3560
 3714SOL    HW112592   4.618   3.664   6.770  1.4457  1.0153  0.5215
 3714SOL    HW212593   4.707   3.583   6.863 -0.5463 -0.6159  1.0822
 3715SOL     OW12594   5.034   2.827   5.896 -0.0553 -0.4420 -0.2890
 3715SOL    HW112595   5.015   2.769   5.969 -0.0734 -3.2782 -2.3915
 3715SOL    HW212596   4.988   2.788   5.821  0.2634  2.0929 -1.9503
 3716SOL     OW12597   0.193   0.218   0.366  0.3111 -0.5092 -0.6787
 3716SOL    HW112598   0.256   0.287   0.387 -0.6331 -0.2130  1.4811
 3716SOL    HW212599   0.119   0.264   0.328 -0.9587  0.0170  2.1365
 3717SOL     OW12600   1.080   1.050   1.550  0.0621  0.1120  0.3563
 3717SOL    HW112601   1.040   1.130   1.515 -2.7315 -0.6685  1.4551
 3717SOL    HW212602   1.060   1.053   1.644  1.7743 -0.8853  0.8008
 3718SOL     OW12603   5.160   5.681   6.629 -0.0526  0.1029  0.5332
 3718SOL    HW112604   5.173   5.658   6.721  0.9302  2.0666  0.9332
 3718SOL    HW212605   5.087   5.625   6.600  0.8952 -1.9720  1.9176
 3719SOL     OW12606   1.750   7.126   2.907  0.0098  0.0794 -0.8458
 3719SOL    HW112607   1.716   7.039   2.929  0.3714 -0.2845 -1.6833
 3719SOL    HW212608   1.683   7.163   2.850  0.7229 -0.4222 -2.0511
 3720SOL     OW12609   5.540   6.823   6.183 -0.4574  0.2626 -0.0569
 3720SOL    HW112610   5.583   6.875   6.115 -1.0235  2.4276  1.1339
 3720SOL    HW212611   5.572   6.734   6.169  3.2186  1.4356 -0.2130
 3721SOL     OW12612   4.779   4.810   2.912  0.2463  0.2725 -0.2773
 3721SOL    HW112613   4.743   4.724   2.888 -0.3122  0.6466 -0.7997
 3721SOL    HW212614   4.722   4.842   2.982  0.1441  0.4453 -0.4403
 3722SOL     OW12615   2.522   0.676   4.777 -0.0952 -0.0772  0.1660
 3722SOL    HW112616   2.593   0.626   4.816 -1.9383 -1.7053  1.6465
 3722SOL    HW212617   2.478   0.718   4.851 -0.9728  0.4908 -0.6478
 3723SOL     OW12618   5.206   0.296   4.166 -0.1895  0.3335 -0.3176
 3723SOL    HW112619   5.219   0.209   4.203 -1.5272 -0.0322 -0.6565
 3723SOL    HW212620   5.262   0.298   4.089  1.1159  0.3970  0.5896
 3724SOL     OW12621   5.029   3.158   0.443 -0.0825  0.2064 -0.5329
 3724SOL    HW112622   4.959   3.140   0.379 -0.1715  0.9022 -0.6359
 3724SOL    HW212623   4.988   3.142   0.528  0.2671 -1.5170 -0.6629
 3725SOL     OW12624   6.931   0.141   3.484 -0.3745  0.1457 -0.4387
 3725SOL    HW112625   6.903   0.102   3.401 -1.1153 -0.3530  0.0343
 3725SOL    HW212626   6.889   0.227   3.486 -0.4235  0.1243 -0.5433
 3726SOL     OW12627   1.522   3.279   0.253  0.0319  0.0121  0.2352
 3726SOL    HW112628   1.570   3.197   0.249  0.1213  0.0205  1.0945
 3726SOL    HW212629   1.493   3.286   0.344 -0.0142  0.9089  0.1571
 3727SOL     OW12630   3.501   6.209   4.989  0.6281  0.0871 -0.1573
 3727SOL    HW112631   3.415   6.214   4.946  0.7398 -0.1145 -0.4031
 3727SOL    HW212632   3.492   6.266   5.066  1.0396  2.0515 -1.4763
 3728SOL     OW12633   1.739   2.637   6.183  0.1667 -0.1791  0.5081
 3728SOL    HW112634   1.825   2.612   6.150 -0.3429 -0.6500 -0.5084
 3728SOL    HW212635   1.680   2.569   6.151 -0.4828 -0.2455  1.7867
 3729SOL     OW12636   6.487   3.724   3.385  0.3609 -0.2756 -0.3727
 3729SOL    HW112637   6.403   3.764   3.408 -0.9056 -2.6185 -0.5064
 3729SOL    HW212638   6.502   3.658   3.453  2.3460  0.3827 -0.1164
 3730SOL     OW12639   2.609   0.199   2.371 -0.0932 -0.1325 -0.4234
 3730SOL    HW112640   2.576   0.136   2.435  1.7494 -2.2758 -1.4726
 3730SOL    HW212641   2.544   0.197   2.300 -1.4886  1.3337  0.7113
 3731SOL     OW12642   4.406   3.222   5.297 -0.1439 -0.1374  0.5713
 3731SOL    HW112643   4.324   3.240   5.250  0.2775 -0.5548 -0.3366
 3731SOL    HW212644   4.402   3.129   5.318  1.2048 -0.7648 -1.7074
 3732SOL     OW12645   5.373   0.698   4.699  0.9706 -0.0511 -0.8670
 3732SOL    HW112646   5.429   0.775   4.682  0.1961  0.1127 -3.0661
 3732SOL    HW212647   5.309   0.700   4.627 -1.2127 -0.8351  0.9567
 3733SOL     OW12648   1.115   4.327   1.020  0.6166  0.0768 -0.4136
 3733SOL    HW112649   1.095   4.334   1.113  1.3959 -1.8777 -0.0499
 3733SOL    HW212650   1.144   4.415   0.995  0.4925  0.6119  1.2047
 3734SOL     OW12651   1.446   7.016   2.206  0.3137 -0.0008  0.5435
 3734SOL    HW112652   1.372   7.075   2.219  0.0807 -0.0105 -0.6319
 3734SOL    HW212653   1.511   7.070   2.161  1.7159  0.4875  2.9766
 3735SOL     OW12654   4.256   1.277   1.951 -0.5177  0.0395  0.0989
 3735SOL    HW112655   4.188   1.223   1.911  0.9282 -1.3699 -0.5624
 3735SOL    HW212656   4.233   1.366   1.926 -0.2381 -0.6751 -3.1392
 3736SOL     OW12657   5.258   3.657   0.094  0.5091 -0.2410  0.3361
 3736SOL    HW112658   5.321   3.684   0.027  0.4029 -0.3855  0.1737
 3736SOL    HW212659   5.177   3.704   0.072  0.3416 -0.6350  0.0872
 3737SOL     OW12660   0.516   6.290   7.092 -0.0729 -0.1628  0.1127
 3737SOL    HW112661   0.460   6.259   7.021  0.2916  0.1545 -0.3197
 3737SOL    HW212662   0.510   6.386   7.088 -0.4369 -0.1423  0.8284
 3738SOL     OW12663   1.968   0.815   0.563  0.3653 -0.2633  0.2804
 3738SOL    HW112664   2.038   0.878   0.581  0.2693 -0.1165  0.1420
 3738SOL    HW212665   1.970   0.803   0.468 -0.2271  0.2429  0.1998
 3739SOL     OW12666   6.839   5.421   6.345 -0.0960 -0.2955 -0.0330
 3739SOL    HW112667   6.791   5.355   6.395 -0.8936 -1.2476 -1.9258
 3739SOL    HW212668   6.826   5.502   6.394  0.7051 -1.4598  2.2359
 3740SOL     OW12669   6.007   6.720   2.647  0.0892 -0.5095 -0.0348
 3740SOL    HW112670   5.998   6.683   2.735  0.7630  0.7502  0.5954
 3740SOL    HW212671   5.949   6.796   2.647 -0.1642 -0.6984 -0.7998
 3741SOL     OW12672   6.327   6.345   5.486 -0.7901 -0.2757 -0.6686
 3741SOL    HW112673   6.278   6.372   5.564 -1.6874 -0.6885 -1.0826
 3741SOL    HW212674   6.369   6.263   5.512 -1.1837 -0.4747 -0.6471
 3742SOL     OW12675   0.817   6.762   4.996 -0.1201  0.2230  0.3360
 3742SOL    HW112676   0.742   6.703   4.999  0.5754 -0.7177 -0.3406
 3742SOL    HW212677   0.805   6.821   5.071 -2.0498  0.7369 -0.3174
 3743SOL     OW12678   1.383   1.385   3.709  0.4131  0.0464  0.4982
 3743SOL    HW112679   1.410   1.460   3.657 -1.1933 -0.1619 -0.7067
 3743SOL    HW212680   1.457   1.324   3.704  1.1697  0.9607  0.3435
 3744SOL     OW12681   1.715   2.959   5.539  0.3361 -0.1047 -0.2115
 3744SOL    HW112682   1.619   2.963   5.540  0.2003 -1.5936 -1.6999
 3744SOL    HW212683   1.741   3.032   5.484  0.0645  0.3451  0.2475
 3745SOL     OW12684   3.628   5.602   1.876  0.0294 -0.0331  0.5759
 3745SOL    HW112685   3.717   5.577   1.852 -0.0781 -1.7138  1.7557
 3745SOL    HW212686   3.611   5.557   1.959 -1.2713  1.7442  1.3575
 3746SOL     OW12687   2.609   3.911   1.352 -0.1622  0.3208 -0.1423
 3746SOL    HW112688   2.517   3.900   1.377  0.3219 -1.1183  1.0996
 3746SOL    HW212689   2.656   3.845   1.402  1.6010  1.1884 -0.5782
 3747SOL     OW12690   7.097   4.066   0.035  0.3778 -0.1538 -0.1242
 3747SOL    HW112691   7.114   4.091   0.126  0.1966 -1.3289  0.2451
 3747SOL    HW212692   7.023   4.005   0.040  0.9835 -0.9868 -0.9533
 3748SOL     OW12693   3.241   1.429   4.933  0.1880 -0.1969 -0.6941
 3748SOL    HW112694   3.270   1.410   4.844 -0.7549  0.0068 -1.0618
 3748SOL    HW212695   3.299   1.377   4.989  0.9021 -0.1889 -1.4129
 3749SOL     OW12696   3.162   5.509   1.373 -0.0521  0.7805 -0.2203
 3749SOL    HW112697   3.182   5.420   1.403  2.2761  0.6624 -1.8286
 3749SOL    HW212698   3.069   5.521   1.393 -0.5783 -2.2167 -0.3887
 3750SOL     OW12699   1.238   6.539   1.219 -0.1182  0.7440 -0.1564
 3750SOL    HW112700   1.263   6.592   1.144  0.9493  0.3382 -0.1199
 3750SOL    HW212701   1.169   6.482   1.187 -0.4489  1.3406 -0.5167
 3751SOL     OW12702   3.865   1.731   2.879 -0.0725  0.2527  0.1299
 3751SOL    HW112703   3.847   1.774   2.796 -1.1731  0.4032  0.4263
 3751SOL    HW212704   3.882   1.639   2.856  3.2241  0.8998 -0.6125
 3752SOL     OW12705   1.843   3.100   7.143  0.5342 -0.1831 -0.2227
 3752SOL    HW112706   1.780   3.171   7.148  0.3987 -0.2881 -0.4296
 3752SOL    HW212707   1.807   3.040   7.077  2.1332  1.0370 -2.3185
 3753SOL     OW12708   2.952   2.710   1.744  1.0949  0.0418 -1.0351
 3753SOL    HW112709   2.936   2.770   1.671  0.4315  0.0032 -0.9275
 3753SOL    HW212710   2.954   2.623   1.704  0.9904  0.0429 -1.0421
 3754SOL     OW12711   1.199   0.200   4.669  0.3781 -0.0292  0.2538
 3754SOL    HW112712   1.121   0.175   4.620  1.0857  1.3088 -1.6439
 3754SOL    HW212713   1.268   0.143   4.635  0.1015 -2.0467  2.7501
 3755SOL     OW12714   5.044   6.691   1.251 -0.1084 -0.1449 -0.3122
 3755SOL    HW112715   5.051   6.618   1.190  0.2619 -0.8781  0.5935
 3755SOL    HW212716   5.103   6.669   1.322 -1.0341  0.3753  0.6416
 3756SOL     OW12717   3.575   0.471   4.842 -0.1075 -0.2767  0.5008
 3756SOL    HW112718   3.529   0.548   4.874  0.8823  0.2362  0.7114
 3756SOL    HW212719   3.509   0.401   4.844 -1.0295  0.5670  0.2414
 3757SOL     OW12720   6.085   2.739   3.563  0.6448  0.6295  0.1819
 3757SOL    HW112721   6.134   2.660   3.541 -0.7840 -0.4943  0.8631
 3757SOL    HW212722   6.084   2.741   3.658 -2.1844 -0.4678  0.2688
 3758SOL     OW12723   6.601   0.192   6.805 -0.4235  0.1111  0.1225
 3758SOL    HW112724   6.639   0.116   6.761 -1.1686 -0.0099 -0.3257
 3758SOL    HW212725   6.549   0.235   6.738  1.0573  1.8076 -0.0202
 3759SOL     OW12726   0.304   0.592   1.674 -0.1184 -0.4003 -0.7566
 3759SOL    HW112727   0.265   0.514   1.715  1.9453 -1.3040 -0.3870
 3759SOL    HW212728   0.397   0.587   1.697 -0.0813  2.8303  0.2741
 3760SOL     OW12729   0.892   0.824   0.202 -0.2698  0.0939  0.5525
 3760SOL    HW112730   0.832   0.858   0.268  0.4225  0.5604  0.9641
 3760SOL    HW212731   0.856   0.739   0.177 -1.7836  0.9203 -0.1641
 3761SOL     OW12732   5.119   3.072   0.738 -0.2513 -0.1144 -0.1463
 3761SOL    HW112733   5.099   2.981   0.756 -1.2550 -0.2438 -1.7437
 3761SOL    HW212734   5.215   3.075   0.734 -0.0819 -0.5968  2.1667
 3762SOL     OW12735   1.927   1.642   6.852 -0.2393  0.3014 -0.6076
 3762SOL    HW112736   1.911   1.661   6.945 -1.3030 -1.5230 -0.3717
 3762SOL    HW212737   2.008   1.592   6.852 -0.1457  0.4520 -0.6884
 3763SOL     OW12738   6.116   3.574   6.020  0.0784  0.2566 -0.3757
 3763SOL    HW112739   6.052   3.510   6.052  1.4120  1.1701  5.0762
 3763SOL    HW212740   6.073   3.659   6.029  2.1062  1.1549  5.5575
 3764SOL     OW12741   5.918   4.884   2.555 -0.1174 -0.1346  0.4251
 3764SOL    HW112742   5.913   4.967   2.508 -0.5621 -0.5448 -0.2797
 3764SOL    HW212743   5.988   4.896   2.619 -0.1018  0.7384  0.2538
 3765SOL     OW12744   6.381   7.016   5.363  0.2828  0.3576 -0.3240
 3765SOL    HW112745   6.330   7.051   5.290 -1.1584  0.7341  0.8176
 3765SOL    HW212746   6.409   6.929   5.333 -0.5779  0.3657 -1.1962
 3766SOL     OW12747   6.247   2.162   1.658 -0.2397 -0.1132  0.1942
 3766SOL    HW112748   6.293   2.246   1.650 -1.0738  0.3847  0.5418
 3766SOL    HW212749   6.246   2.127   1.569 -0.6118  0.6356 -0.1052
 3767SOL     OW12750   3.147   3.357   5.636  0.0193  0.2259  0.1067
 3767SOL    HW112751   3.164   3.263   5.642 -1.4534  0.0254  1.9715
 3767SOL    HW212752   3.233   3.397   5.622  0.6037 -1.3978 -1.1821
 3768SOL     OW12753   6.117   1.831   4.654 -0.1824  0.5583 -0.0314
 3768SOL    HW112754   6.163   1.749   4.635 -0.6972 -0.1492  1.6050
 3768SOL    HW212755   6.125   1.882   4.574  1.1586 -0.6180 -0.6925
 3769SOL     OW12756   2.775   7.095   0.270 -0.2024  0.2082 -0.2395
 3769SOL    HW112757   2.852   7.056   0.228  1.0488  1.7607  0.4722
 3769SOL    HW212758   2.703   7.037   0.248  0.9681 -0.7020 -1.9001
 3770SOL     OW12759   1.106   1.824   2.215 -0.0260  0.6211  0.3957
 3770SOL    HW112760   1.075   1.907   2.251  0.1796  0.9405 -0.1515
 3770SOL    HW212761   1.033   1.764   2.225 -0.4239  1.0598  0.1600
 3771SOL     OW12762   0.184   6.196   3.347  0.3773  0.0600  0.1012
 3771SOL    HW112763   0.120   6.132   3.378  0.5866 -0.0834  0.2397
 3771SOL    HW212764   0.268   6.163   3.378  0.3609  1.0892  1.3152
 3772SOL     OW12765   0.275   0.080   5.617 -0.1039  0.1610  0.1622
 3772SOL    HW112766   0.237  -0.005   5.597  0.7096  0.1724 -1.5881
 3772SOL    HW212767   0.322   0.067   5.699 -0.2052 -1.0113  0.0440
 3773SOL     OW12768   5.056   4.686   0.980  0.2875  0.0435  0.3533
 3773SOL    HW112769   5.106   4.654   0.905  1.8145  0.3748  1.1895
 3773SOL    HW212770   5.074   4.623   1.049  0.6806  0.9207  1.0663
 3774SOL     OW12771   4.145   4.609   6.322 -0.3616  0.1869 -0.1488
 3774SOL    HW112772   4.151   4.666   6.399 -0.6083  1.9847 -1.3918
 3774SOL    HW212773   4.056   4.620   6.291 -0.7361 -1.7383  0.1644
 3775SOL     OW12774   5.665   6.241   1.062 -0.0175  0.2841 -0.2269
 3775SOL    HW112775   5.649   6.177   0.993 -2.3988  0.4872  0.0378
 3775SOL    HW212776   5.688   6.322   1.016 -0.2565  0.0749 -0.7115
 3776SOL     OW12777   4.925   6.786   6.306  1.0723 -0.0365 -0.1072
 3776SOL    HW112778   4.852   6.756   6.252  0.2090 -0.5465  1.2800
 3776SOL    HW212779   4.887   6.852   6.363  0.8382 -2.3970  2.7279
 3777SOL     OW12780   1.251   1.895   0.839 -0.1099  0.1972 -0.6445
 3777SOL    HW112781   1.219   1.867   0.753 -0.3291  0.0278 -0.5089
 3777SOL    HW212782   1.294   1.817   0.874 -0.3483  0.1569 -0.4430
 3778SOL     OW12783   7.078   4.799   4.806 -0.2032 -0.1819 -0.2247
 3778SOL    HW112784   7.002   4.764   4.759 -0.3460 -0.8661  0.4831
 3778SOL    HW212785   7.141   4.821   4.738 -0.0210 -2.0470 -0.7199
 3779SOL     OW12786   0.843   5.359   4.250  0.0164 -0.4417 -0.0415
 3779SOL    HW112787   0.756   5.379   4.284  0.9349  1.5945  1.3109
 3779SOL    HW212788   0.868   5.277   4.295 -1.9253 -2.2533 -2.0267
 3780SOL     OW12789   3.590   0.626   4.561  0.2878 -0.3916  0.3160
 3780SOL    HW112790   3.604   0.613   4.655  0.4255  0.9025  0.4902
 3780SOL    HW212791   3.495   0.624   4.551  0.1812  1.1176  0.7679
 3781SOL     OW12792   5.721   4.573   5.527  0.1967 -0.1303 -0.7733
 3781SOL    HW112793   5.704   4.637   5.458 -0.2826  1.1328  0.4630
 3781SOL    HW212794   5.705   4.488   5.486 -1.6783  0.6558 -1.7735
 3782SOL     OW12795   0.197   0.550   7.064  0.3122 -0.3709 -0.1660
 3782SOL    HW112796   0.191   0.459   7.095  1.3090 -0.0769  0.9648
 3782SOL    HW212797   0.115   0.565   7.018 -1.0856 -0.9904  1.9767
 3783SOL     OW12798   1.377   3.828   0.753 -0.2709  0.5857 -0.1046
 3783SOL    HW112799   1.375   3.735   0.730 -1.4026  0.3709  0.7484
 3783SOL    HW212800   1.435   3.868   0.688 -0.6763 -0.5280 -1.1857
 3784SOL     OW12801   6.724   4.191   0.164 -0.1401  0.6670  0.2746
 3784SOL    HW112802   6.767   4.220   0.244 -1.5493 -0.0152  1.3309
 3784SOL    HW212803   6.653   4.253   0.151  0.2232  0.9103 -0.5919
 3785SOL     OW12804   3.830   2.629   2.176 -0.0114  0.0461  0.3181
 3785SOL    HW112805   3.824   2.680   2.095 -0.0349  0.1362  0.3761
 3785SOL    HW212806   3.831   2.538   2.147  0.7387  0.0929  0.1642
 3786SOL     OW12807   2.858   6.205   6.035  0.3013  0.1899 -0.2661
 3786SOL    HW112808   2.783   6.230   5.980  0.6274 -0.1803 -0.8941
 3786SOL    HW212809   2.819   6.185   6.120 -0.2723  0.3282 -0.4864
 3787SOL     OW12810   6.335   2.390   5.776  0.1022 -0.0944  0.0401
 3787SOL    HW112811   6.384   2.311   5.753  0.2171 -0.7211  2.1971
 3787SOL    HW212812   6.245   2.360   5.787  0.1945  0.0014  1.1325
 3788SOL     OW12813   2.360   0.977   1.776 -0.2238 -0.7963 -0.1823
 3788SOL    HW112814   2.272   0.941   1.785 -0.5254 -0.4016 -1.3229
 3788SOL    HW212815   2.380   0.968   1.683  0.3995  0.3244 -0.1802
 3789SOL     OW12816   5.455   2.714   1.513  0.1764 -0.7364 -0.6319
 3789SOL    HW112817   5.523   2.674   1.568 -0.4799 -1.2730 -0.2027
 3789SOL    HW212818   5.499   2.789   1.473  0.5795 -0.0958  0.9176
 3790SOL     OW12819   2.206   6.972   4.373  0.2376 -0.1362  0.1993
 3790SOL    HW112820   2.245   7.034   4.434 -0.3452 -0.1967  0.6430
 3790SOL    HW212821   2.275   6.955   4.308  0.1670  1.5401 -0.3566
 3791SOL     OW12822   3.801   5.387   0.753 -0.0548  0.0036  0.1368
 3791SOL    HW112823   3.739   5.404   0.682  0.4448  3.3574  0.3700
 3791SOL    HW212824   3.749   5.342   0.819 -1.4969  0.2008 -0.8068
 3792SOL     OW12825   5.769   6.120   4.494 -0.7182  0.1740  0.2795
 3792SOL    HW112826   5.774   6.036   4.448  1.6777 -0.1421  0.9737
 3792SOL    HW212827   5.711   6.174   4.439  1.3226 -0.4338 -2.7250
 3793SOL     OW12828   0.029   5.478   5.909 -0.3681 -0.0140 -0.2532
 3793SOL    HW112829  -0.023   5.505   5.985 -0.7986 -0.1200 -0.5068
 3793SOL    HW212830   0.046   5.385   5.923 -0.1247  0.0532 -0.0999
 3794SOL     OW12831   1.174   1.244   0.971  0.0019 -0.0337 -0.2490
 3794SOL    HW112832   1.184   1.338   0.985 -0.2716 -0.0337 -0.0309
 3794SOL    HW212833   1.171   1.207   1.060  0.0925 -0.2441 -0.3335
 3795SOL     OW12834   2.351   2.784   6.146  0.2669 -0.4045  0.7266
 3795SOL    HW112835   2.330   2.771   6.053  1.1024  1.1055  0.3003
 3795SOL    HW212836   2.282   2.841   6.179  0.1039 -0.7434  0.9733
 3796SOL     OW12837   5.338   0.285   6.872 -0.4462 -0.4305  0.2903
 3796SOL    HW112838   5.261   0.307   6.821  0.0122 -2.5679 -1.4910
 3796SOL    HW212839   5.410   0.287   6.809  0.8121  0.5544  1.6996
 3797SOL     OW12840   0.430   0.519   0.173  0.3819  0.5962  0.0141
 3797SOL    HW112841   0.380   0.600   0.162  1.2426  1.2505  0.7671
 3797SOL    HW212842   0.495   0.521   0.103  0.3337  0.5088 -0.0328
 3798SOL     OW12843   5.412   1.829   6.909 -0.6179 -0.0795 -0.3475
 3798SOL    HW112844   5.412   1.747   6.956  0.8749  0.3099  0.3687
 3798SOL    HW212845   5.384   1.894   6.973 -0.1547  0.2216 -0.4496
 3799SOL     OW12846   6.605   0.434   0.583  0.2260 -0.1358 -0.1294
 3799SOL    HW112847   6.563   0.520   0.587  0.2677 -0.1300  0.3599
 3799SOL    HW212848   6.695   0.450   0.612 -0.2099 -0.5936  1.6612
 3800SOL     OW12849   5.127   4.942   4.986  0.2594 -1.0122 -0.1000
 3800SOL    HW112850   5.171   4.895   4.914  0.0118 -0.0895 -0.8790
 3800SOL    HW212851   5.079   4.874   5.033  0.0661 -1.5759 -1.0798
 3801SOL     OW12852   6.439   5.384   5.937 -0.3188  0.6003  0.9786
 3801SOL    HW112853   6.456   5.407   6.028 -1.1569 -0.8953  1.5632
 3801SOL    HW212854   6.358   5.331   5.941 -0.0329  0.0060 -0.5416
 3802SOL     OW12855   6.280   4.305   0.109  0.2294  0.1456  0.0208
 3802SOL    HW112856   6.313   4.238   0.169 -0.4098  1.1193  1.5200
 3802SOL    HW212857   6.185   4.301   0.120  0.1730  1.1609  0.0069
 3803SOL     OW12858   0.895   4.388   0.584  0.3145 -0.0733 -0.1049
 3803SOL    HW112859   0.843   4.308   0.571  0.0706  0.0551  0.0677
 3803SOL    HW212860   0.895   4.401   0.678  0.9330 -0.2457 -0.0742
 3804SOL     OW12861   2.702   3.131   3.346  0.1399  0.0244  0.1535
 3804SOL    HW112862   2.746   3.214   3.329  0.1702  0.2033  1.0647
 3804SOL    HW212863   2.609   3.149   3.331 -0.0412  0.6620  1.8739
 3805SOL     OW12864   3.223   1.989   5.151  0.0460 -0.3398  0.2140
 3805SOL    HW112865   3.243   1.928   5.081 -0.1967  0.7781 -0.8694
 3805SOL    HW212866   3.139   2.028   5.127 -0.2996 -0.3055  1.3981
 3806SOL     OW12867   1.276   5.052   6.534 -0.3473  0.2394 -0.0738
 3806SOL    HW112868   1.344   5.021   6.594 -1.2085 -2.0905 -0.2217
 3806SOL    HW212869   1.324   5.076   6.454  0.3036 -1.8059 -0.3395
 3807SOL     OW12870   1.042   6.426   2.237 -0.2589 -0.6673 -0.2934
 3807SOL    HW112871   0.985   6.464   2.170 -1.1283 -1.6285 -0.1193
 3807SOL    HW212872   1.018   6.471   2.318 -1.3515 -1.5999 -0.0699
 3808SOL     OW12873   6.701   0.197   5.218  0.0268 -0.9452  0.7443
 3808SOL    HW112874   6.613   0.166   5.197 -0.7311  1.7297 -0.4388
 3808SOL    HW212875   6.694   0.228   5.309 -0.1521 -1.0639  0.7714
 3809SOL     OW12876   1.578   2.339   2.721  0.9294  0.0520 -0.0771
 3809SOL    HW112877   1.625   2.328   2.638 -0.6216  0.8244 -1.1145
 3809SOL    HW212878   1.552   2.250   2.745  1.9869 -0.2553 -0.0519
 3810SOL     OW12879   0.816   1.478   0.265  0.0745 -0.6222 -0.1814
 3810SOL    HW112880   0.733   1.430   0.269  0.4047 -1.1087  1.2034
 3810SOL    HW212881   0.794   1.558   0.216 -1.1706 -0.8209  0.0058
 3811SOL     OW12882   0.704   5.053   4.121  0.5953 -0.3715 -0.0909
 3811SOL    HW112883   0.786   5.076   4.077  0.0963 -0.9162 -1.3571
 3811SOL    HW212884   0.728   4.983   4.182  1.3109  0.4275  0.5630
 3812SOL     OW12885   0.931   2.445   5.432  0.5933 -0.3505  0.2150
 3812SOL    HW112886   0.965   2.535   5.427  1.6741 -0.7469  0.1618
 3812SOL    HW212887   0.949   2.408   5.346 -0.9576 -0.2572 -0.1680
 3813SOL     OW12888   4.966   4.957   5.496 -0.1047 -0.2966 -0.2550
 3813SOL    HW112889   4.905   4.949   5.423 -0.3643 -0.4066 -0.0255
 3813SOL    HW212890   4.982   4.866   5.524 -1.2774 -0.1779  0.8786
 3814SOL     OW12891   1.161   1.360   1.813 -0.1892  0.1257  0.2372
 3814SOL    HW112892   1.077   1.314   1.818  1.5629 -3.2659  1.6010
 3814SOL    HW212893   1.178   1.388   1.903 -0.0224  1.2085 -0.1153
 3815SOL     OW12894   6.721   1.316   1.084  0.2239  0.1924 -0.1965
 3815SOL    HW112895   6.789   1.334   1.019  0.1247  1.5000  0.0447
 3815SOL    HW212896   6.701   1.223   1.072  0.6293  0.2648 -1.6228
 3816SOL     OW12897   1.812   2.947   2.376  0.4865  0.5276 -0.0050
 3816SOL    HW112898   1.855   2.890   2.441 -2.4999 -2.0869 -0.0744
 3816SOL    HW212899   1.735   2.980   2.421 -0.8289 -0.0904 -1.7145
 3817SOL     OW12900   5.854   0.405   3.412  0.0993 -0.0346 -0.0497
 3817SOL    HW112901   5.831   0.498   3.416 -1.3731 -0.3393 -0.9277
 3817SOL    HW212902   5.771   0.359   3.419  0.6590 -1.2502 -1.0264
 3818SOL     OW12903   2.411   5.943   6.885 -0.2668  0.1778 -0.0863
 3818SOL    HW112904   2.470   5.965   6.957  0.0509 -1.3906  0.1755
 3818SOL    HW212905   2.403   5.848   6.889 -1.7316  0.2326 -0.9780
 3819SOL     OW12906   3.893   6.851   0.805 -0.0350 -0.9251 -0.1365
 3819SOL    HW112907   3.947   6.910   0.753  0.4544 -0.5870  0.7316
 3819SOL    HW212908   3.956   6.799   0.855 -0.4248 -2.7452 -1.4603
 3820SOL     OW12909   6.260   4.103   1.439  0.7909 -0.4456 -0.1503
 3820SOL    HW112910   6.198   4.162   1.482  1.5522  0.4806 -0.2841
 3820SOL    HW212911   6.205   4.041   1.392 -0.0957  1.7226 -2.1573
 3821SOL     OW12912   2.884   1.516   6.149  0.6235  0.1676 -0.4384
 3821SOL    HW112913   2.941   1.590   6.126  1.1306 -0.2536 -0.5682
 3821SOL    HW212914   2.811   1.522   6.087  1.5759 -0.4932 -1.6627
 3822SOL     OW12915   1.606   4.019   0.612 -0.2554  0.5107 -0.3813
 3822SOL    HW112916   1.640   3.943   0.660  0.3486  0.9886 -0.0366
 3822SOL    HW212917   1.675   4.085   0.621 -1.0120  1.2829 -0.2191
 3823SOL     OW12918   5.369   5.857   6.688  0.7628 -0.0326 -0.3486
 3823SOL    HW112919   5.425   5.809   6.749 -1.2685 -0.8406  0.9985
 3823SOL    HW212920   5.309   5.790   6.654  1.4153  0.5244 -2.8053
 3824SOL     OW12921   0.396   0.884   7.037  0.1936  0.2953  0.4072
 3824SOL    HW112922   0.487   0.865   7.016  0.1967 -0.4971  1.0897
 3824SOL    HW212923   0.347   0.858   6.959  0.6268  1.5979 -0.3209
 3825SOL     OW12924   0.646   5.645   0.284  0.3547 -0.4002  0.3146
 3825SOL    HW112925   0.675   5.726   0.327  2.6807 -0.5679 -0.8013
 3825SOL    HW212926   0.604   5.675   0.203  2.5359 -0.2722 -0.8419
 3826SOL     OW12927   2.491   5.331   5.594  0.0414  0.1250  0.0491
 3826SOL    HW112928   2.494   5.296   5.683 -0.3608  1.8547  0.7791
 3826SOL    HW212929   2.526   5.420   5.602  1.1981 -0.1144 -1.7599
 3827SOL     OW12930   1.140   3.377   0.423 -0.0234  0.0342  0.5648
 3827SOL    HW112931   1.184   3.292   0.415 -0.3188 -0.1066  0.4650
 3827SOL    HW212932   1.195   3.426   0.485  0.0677 -0.2796  0.7346
 3828SOL     OW12933   5.502   0.071   1.011  0.0017  0.1965  0.3891
 3828SOL    HW112934   5.539   0.040   0.929 -1.1815 -2.7530  0.8473
 3828SOL    HW212935   5.577   0.091   1.067  0.8111  2.0770 -1.2551
 3829SOL     OW12936   0.765   1.145   4.192 -0.4639 -0.1751  0.2720
 3829SOL    HW112937   0.799   1.220   4.240 -0.5537 -0.5317  0.8985
 3829SOL    HW212938   0.674   1.137   4.221 -0.5175 -0.3963  0.0485
 3830SOL     OW12939   0.752   0.634   0.486 -0.4758 -0.0778 -0.1708
 3830SOL    HW112940   0.794   0.695   0.547 -0.3214 -0.0508 -0.3041
 3830SOL    HW212941   0.666   0.673   0.468 -0.0186  0.5911 -0.9913
 3831SOL     OW12942   2.949   6.331   5.631  0.4272  0.3302 -0.2097
 3831SOL    HW112943   2.938   6.413   5.582  1.9294 -0.0770 -1.2822
 3831SOL    HW212944   3.029   6.344   5.681  2.0654 -1.2943 -2.2213
 3832SOL     OW12945   0.371   1.166   3.614 -0.4872  0.1808 -0.2963
 3832SOL    HW112946   0.393   1.156   3.706  2.7674  0.7781 -0.9083
 3832SOL    HW212947   0.293   1.222   3.614 -0.9049 -0.3068  2.0608
 3833SOL     OW12948   1.296   3.287   5.241 -0.4469  0.1347 -0.0319
 3833SOL    HW112949   1.220   3.344   5.232 -1.4680 -1.0327  0.7258
 3833SOL    HW212950   1.301   3.269   5.335  1.0273  0.5105 -0.0172
 3834SOL     OW12951   1.059   4.040   1.007  0.6802 -0.4963  0.0897
 3834SOL    HW112952   0.974   4.023   0.965  0.5298 -1.1247  0.6486
 3834SOL    HW212953   1.054   4.132   1.034  0.6606 -0.1676 -0.9831
 3835SOL     OW12954   2.326   4.772   4.527  0.0967  0.3440  0.0830
 3835SOL    HW112955   2.359   4.830   4.597 -1.5735  0.8373  0.5146
 3835SOL    HW212956   2.239   4.746   4.557 -0.1150 -0.5234 -1.2142
 3836SOL     OW12957   4.236   3.746   5.681  0.4283  0.5486 -0.3195
 3836SOL    HW112958   4.159   3.702   5.647  0.8064  0.3902 -1.0003
 3836SOL    HW212959   4.250   3.708   5.768 -0.3210  0.6687 -0.1436
 3837SOL     OW12960   3.179   1.124   1.756 -0.3979  0.0750  0.3522
 3837SOL    HW112961   3.207   1.141   1.846 -0.2406  1.4986  0.0669
 3837SOL    HW212962   3.224   1.043   1.732  1.0691  0.6728  0.9282
 3838SOL     OW12963   0.616   5.653   5.671  0.0015 -0.5257 -0.2047
 3838SOL    HW112964   0.538   5.598   5.668  0.5688 -1.3260 -1.3374
 3838SOL    HW212965   0.600   5.722   5.605 -0.0721 -0.2348  0.1163
 3839SOL     OW12966   0.061   4.393   5.753 -0.2169 -0.2459  0.2542
 3839SOL    HW112967   0.136   4.449   5.736 -0.4723 -0.0292 -0.1651
 3839SOL    HW212968   0.095   4.322   5.808  0.9264 -1.6381 -2.0942
 3840SOL     OW12969   2.604   6.048   2.104  0.5954  0.3110  0.0784
 3840SOL    HW112970   2.520   6.017   2.068 -1.4705  2.4537  2.6386
 3840SOL    HW212971   2.628   6.122   2.048  0.6543 -0.1194 -0.4788
 3841SOL     OW12972   4.400   7.096   3.440 -0.1634  1.1454 -0.3690
 3841SOL    HW112973   4.315   7.069   3.475  0.2016  0.5533  0.0828
 3841SOL    HW212974   4.399   7.065   3.349  0.8788 -2.0192  0.5573
 3842SOL     OW12975   4.518   5.720   5.016 -0.5805 -0.3453 -0.2597
 3842SOL    HW112976   4.519   5.634   5.057 -1.5490 -0.2110  0.0709
 3842SOL    HW212977   4.575   5.711   4.939  1.9675 -0.3629  1.5231
 3843SOL     OW12978   3.535   2.531   5.209  0.3126 -0.4419  0.1527
 3843SOL    HW112979   3.529   2.439   5.184 -0.1396 -0.1925 -0.6896
 3843SOL    HW212980   3.628   2.549   5.215  0.5391 -0.1671 -2.7714
 3844SOL     OW12981   2.209   3.063   2.880 -0.0447 -0.7841 -0.2354
 3844SOL    HW112982   2.177   3.153   2.883  0.2426 -0.6713 -0.4284
 3844SOL    HW212983   2.200   3.038   2.788  2.6368  0.0981 -0.8408
 3845SOL     OW12984   3.329   1.261   5.767 -0.3322  0.0049 -0.4400
 3845SOL    HW112985   3.420   1.246   5.793 -0.6761 -1.4310  0.0134
 3845SOL    HW212986   3.303   1.338   5.817 -0.0044 -0.8377  1.0931
 3846SOL     OW12987   4.527   6.454   3.789  0.0465  0.1814 -0.2714
 3846SOL    HW112988   4.460   6.477   3.854 -1.0043  0.9765 -1.5797
 3846SOL    HW212989   4.494   6.374   3.749  0.4111  0.0046 -0.2249
 3847SOL     OW12990   0.478   3.089   6.982  0.2635  0.2064  0.6230
 3847SOL    HW112991   0.510   3.057   6.898  1.4321 -0.8859  1.4502
 3847SOL    HW212992   0.515   3.029   7.047 -0.4269  1.1478  1.9490
 3848SOL     OW12993   0.863   1.691   6.039  0.4578 -0.1903 -0.3974
 3848SOL    HW112994   0.898   1.705   6.126 -1.7255 -1.3060  0.7502
 3848SOL    HW212995   0.804   1.766   6.025 -0.4052 -0.8114 -0.2036
 3849SOL     OW12996   5.098   4.216   4.168  0.4665  0.1338 -0.6094
 3849SOL    HW112997   5.012   4.175   4.171  0.2737  0.5276 -0.7413
 3849SOL    HW212998   5.081   4.310   4.178  0.9504  0.1292  0.3455
 3850SOL     OW12999   3.975   1.895   0.544 -0.5108 -0.2525 -0.2150
 3850SOL    HW113000   4.054   1.925   0.589 -0.7760  2.2498 -1.2928
 3850SOL    HW213001   3.910   1.964   0.559 -1.8692 -1.2918 -1.0432
 3851SOL     OW13002   2.278   3.924   1.446 -0.5286 -0.7312 -0.4203
 3851SOL    HW113003   2.201   3.977   1.424  1.8119  2.5927 -1.2357
 3851SOL    HW213004   2.275   3.915   1.541 -0.3278  2.1415 -0.0772
 3852SOL     OW13005   0.999   1.852   5.242  0.2652  0.5889  0.0119
 3852SOL    HW113006   0.994   1.811   5.156  2.0043 -1.1498  0.6794
 3852SOL    HW213007   1.078   1.906   5.239  0.5826  0.1710  0.6422
 3853SOL     OW13008   5.789   4.051   0.478  0.3245 -0.5146 -0.6386
 3853SOL    HW113009   5.801   4.145   0.472  3.2108 -0.6470  1.0098
 3853SOL    HW213010   5.736   4.039   0.558  0.5312 -0.3019 -0.4678
 3854SOL     OW13011   4.823   2.744   2.301 -0.7050  0.3138 -0.7160
 3854SOL    HW113012   4.885   2.792   2.356 -0.2254 -0.6400 -0.4072
 3854SOL    HW213013   4.741   2.745   2.351  0.0653 -1.6862  0.6914
 3855SOL     OW13014   0.853   0.286   0.555  0.3952 -0.5223  0.0248
 3855SOL    HW113015   0.765   0.299   0.590 -0.0341 -1.0013 -0.8464
 3855SOL    HW213016   0.839   0.264   0.463  1.5169  1.5450 -0.7123
 3856SOL     OW13017   4.345   4.377   0.924 -0.0815 -0.0365  0.4797
 3856SOL    HW113018   4.349   4.437   0.849  0.7540  0.0754  0.6049
 3856SOL    HW213019   4.406   4.307   0.901 -1.5473 -1.2115  0.0327
 3857SOL     OW13020   5.569   5.243   6.267  0.6667  0.3503 -0.1891
 3857SOL    HW113021   5.520   5.168   6.300  0.7807  0.2665 -0.2100
 3857SOL    HW213022   5.502   5.302   6.231  0.5081  0.6302  0.5601
 3858SOL     OW13023   5.800   6.392   5.383  0.0430 -0.4097 -0.1574
 3858SOL    HW113024   5.778   6.474   5.339 -1.1345  0.5722  2.1148
 3858SOL    HW213025   5.873   6.414   5.441 -0.0660 -1.0415  0.2305
 3859SOL     OW13026   4.130   1.971   1.724  0.4326  0.1289 -0.1737
 3859SOL    HW113027   4.063   1.910   1.755 -0.7854  1.0301 -0.9259
 3859SOL    HW213028   4.118   2.049   1.778 -2.3378  2.0871 -3.2101
 3860SOL     OW13029   4.711   6.741   0.063  0.1832 -0.7278  0.1125
 3860SOL    HW113030   4.646   6.737  -0.007  0.6217 -0.8434 -0.2995
 3860SOL    HW213031   4.770   6.668   0.045  0.9358 -0.1005 -0.0411
 3861SOL     OW13032   0.130   4.950   3.547 -0.0874  0.7329 -0.2407
 3861SOL    HW113033   0.097   4.887   3.611  1.2056 -0.3796 -0.6309
 3861SOL    HW213034   0.213   4.913   3.517 -0.0623  1.8433 -1.6535
 3862SOL     OW13035   6.993   0.787   4.422  0.5080  0.0474  0.1618
 3862SOL    HW113036   6.898   0.791   4.413  0.5659  0.2126 -0.3839
 3862SOL    HW213037   7.027   0.841   4.350  1.0235 -0.4206  0.0486
 3863SOL     OW13038   5.009   5.432   3.610  0.3580 -0.0536 -0.0294
 3863SOL    HW113039   4.939   5.495   3.592  0.3586 -0.0025  0.1492
 3863SOL    HW213040   5.030   5.445   3.702 -0.1049 -0.7863  0.1884
 3864SOL     OW13041   6.739   1.239   3.153  0.0022 -0.2505 -0.4894
 3864SOL    HW113042   6.714   1.198   3.070 -0.2193 -0.4938 -0.3020
 3864SOL    HW213043   6.813   1.188   3.184 -1.4589 -1.7539  0.7070
 3865SOL     OW13044   3.726   6.989   3.982  0.2172  0.9192  0.1398
 3865SOL    HW113045   3.716   6.964   3.890 -0.2331  0.8681  0.2028
 3865SOL    HW213046   3.652   6.949   4.026  0.8185  0.3547  0.6478
 3866SOL     OW13047   0.490   3.065   3.889 -0.5905 -0.1700  0.2255
 3866SOL    HW113048   0.489   2.992   3.828  0.6459 -0.7624  0.8817
 3866SOL    HW213049   0.489   3.025   3.976 -1.1435  0.6230  0.6010
 3867SOL     OW13050   5.920   4.720   5.627 -0.4972  0.5848 -0.9891
 3867SOL    HW113051   5.969   4.779   5.570  0.1135  2.4848  1.3410
 3867SOL    HW213052   5.862   4.672   5.567  0.9578  1.5331 -3.3040
 3868SOL     OW13053   2.528   0.083   5.785 -0.7276 -0.4135  0.0872
 3868SOL    HW113054   2.534  -0.012   5.788  3.6170 -0.3587 -1.0220
 3868SOL    HW213055   2.477   0.101   5.706  0.4664 -1.8626 -1.0562
 3869SOL     OW13056   2.300   6.131   2.010  0.3468 -0.5940 -0.2695
 3869SOL    HW113057   2.365   6.115   1.941  0.6882 -1.0785  0.1622
 3869SOL    HW213058   2.227   6.074   1.986  0.4144 -0.6692 -0.3013
 3870SOL     OW13059   3.106   0.697   3.279 -0.1961  0.2795  0.1746
 3870SOL    HW113060   3.117   0.603   3.293 -2.9539  0.0020  0.9933
 3870SOL    HW213061   3.167   0.737   3.341  3.0510 -0.8275 -2.0221
 3871SOL     OW13062   1.908   4.316   2.967 -0.7261 -0.2782 -0.5936
 3871SOL    HW113063   1.841   4.252   2.991  2.9001 -3.9573  0.7767
 3871SOL    HW213064   1.930   4.294   2.876 -0.8630  0.4748 -0.8178
 3872SOL     OW13065   3.608   2.204   1.628  0.1459  0.6969 -0.0840
 3872SOL    HW113066   3.575   2.164   1.709  0.5060  1.0600  0.2472
 3872SOL    HW213067   3.535   2.197   1.566  0.1694 -0.3791 -0.0054
 3873SOL     OW13068   4.918   1.263   3.844  0.3176 -0.8281 -0.7091
 3873SOL    HW113069   4.956   1.218   3.768 -0.9280  1.0897 -2.6024
 3873SOL    HW213070   4.892   1.349   3.809 -2.3332 -0.6730  1.3560
 3874SOL     OW13071   5.163   6.712   6.202  0.1046 -0.4944 -0.1291
 3874SOL    HW113072   5.080   6.716   6.250  0.4143  0.7706  0.3588
 3874SOL    HW213073   5.214   6.786   6.237  0.5448  0.1546 -2.0466
 3875SOL     OW13074   2.530   2.087   1.680 -0.2488  0.0664 -0.2759
 3875SOL    HW113075   2.590   2.026   1.723 -1.0845 -1.0241 -0.6153
 3875SOL    HW213076   2.522   2.053   1.591 -1.8880 -0.2088 -0.0508
 3876SOL     OW13077   5.611   2.876   1.285 -0.2843 -0.3654 -0.3939
 3876SOL    HW113078   5.691   2.888   1.336 -1.1317 -1.6499  1.3552
 3876SOL    HW213079   5.616   2.786   1.253 -1.5489 -0.8824  0.7658
 3877SOL     OW13080   1.573   2.706   1.437  0.1390  0.3991  0.5703
 3877SOL    HW113081   1.540   2.748   1.357 -0.6932  0.4677  0.9414
 3877SOL    HW213082   1.637   2.767   1.472 -0.5677  1.0474  0.7417
 3878SOL     OW13083   1.164   0.211   4.955 -0.2692 -0.0626  0.3288
 3878SOL    HW113084   1.185   0.237   4.865  0.6086  0.0710  0.5589
 3878SOL    HW213085   1.069   0.198   4.955 -0.5126  1.4475 -0.2401
 3879SOL     OW13086   6.926   7.128   2.777 -0.6570 -0.2351 -0.2301
 3879SOL    HW113087   6.883   7.152   2.858  1.7469  0.3162  0.9912
 3879SOL    HW213088   7.013   7.097   2.804  0.0277 -0.5756 -2.5447
 3880SOL     OW13089   6.939   2.137   5.563 -0.8101 -0.0784  0.4310
 3880SOL    HW113090   6.957   2.078   5.637  0.8686  1.1254  1.0304
 3880SOL    HW213091   6.929   2.078   5.488 -1.7989 -1.2815  1.4619
 3881SOL     OW13092   0.799   4.375   2.224 -0.5133  0.5294  0.5365
 3881SOL    HW113093   0.807   4.316   2.299  0.3859 -0.3735 -0.2291
 3881SOL    HW213094   0.843   4.328   2.152 -1.7831  1.1305 -0.6825
 3882SOL     OW13095   5.579   1.303   5.266  0.6409  0.2147  0.3237
 3882SOL    HW113096   5.536   1.220   5.245  1.4330 -0.3033  0.7329
 3882SOL    HW213097   5.506   1.362   5.289 -0.0114 -0.0373 -0.9969
 3883SOL     OW13098   2.324   1.708   4.373  0.4783  0.3174 -0.1389
 3883SOL    HW113099   2.380   1.727   4.298 -1.1732 -0.0826 -1.5363
 3883SOL    HW213100   2.253   1.772   4.368 -1.2915 -1.5817 -0.7440
 3884SOL     OW13101   6.031   1.264   2.003 -0.1408 -0.3747  0.8359
 3884SOL    HW113102   6.115   1.223   2.025  1.8920  2.9129 -0.1312
 3884SOL    HW213103   6.008   1.227   1.918  0.2675 -1.3180  1.1114
 3885SOL     OW13104   2.599   5.591   5.585 -0.7960 -0.1856  0.0664
 3885SOL    HW113105   2.564   5.643   5.658  2.0536 -0.1182  1.5501
 3885SOL    HW213106   2.644   5.655   5.530 -0.6737 -0.5746 -0.2892
 3886SOL     OW13107   2.475   5.488   6.272 -0.5803 -0.6746  0.5421
 3886SOL    HW113108   2.545   5.472   6.334  0.1769 -0.9901 -0.3684
 3886SOL    HW213109   2.395   5.484   6.324 -0.1365 -3.0216  1.1411
 3887SOL     OW13110   0.786   6.938   6.587  0.6533  0.0292 -0.1291
 3887SOL    HW113111   0.807   6.855   6.630 -0.5656 -0.0554  0.3436
 3887SOL    HW213112   0.702   6.964   6.624  1.4137  1.9259  0.3636
 3888SOL     OW13113   6.913   2.133   4.924  0.2938 -0.0725 -0.1165
 3888SOL    HW113114   6.843   2.186   4.884  0.6315 -1.1652 -2.3384
 3888SOL    HW213115   6.994   2.173   4.892  0.7273  0.7615  1.8870
 3889SOL     OW13116   1.480   0.023   3.638 -0.0726  0.0743  0.4301
 3889SOL    HW113117   1.463  -0.064   3.676 -1.2082  0.0061 -0.1923
 3889SOL    HW213118   1.505   0.004   3.548  0.4945  0.3585  0.5250
 3890SOL     OW13119   0.488   1.188   1.513  0.4194  0.0179  0.4267
 3890SOL    HW113120   0.516   1.189   1.421  2.6104 -2.9721  0.8956
 3890SOL    HW213121   0.526   1.266   1.551  0.7097  0.5410 -0.8898
 3891SOL     OW13122   3.149   0.286   2.354  0.3081 -0.1816  0.0392
 3891SOL    HW113123   3.061   0.315   2.374  0.3262 -0.5967  0.7753
 3891SOL    HW213124   3.182   0.249   2.436  0.7372 -1.0978 -0.5178
 3892SOL     OW13125   0.516   6.736   6.188  0.7297  0.3483 -0.3028
 3892SOL    HW113126   0.518   6.662   6.127 -1.3275 -0.0645  0.0540
 3892SOL    HW213127   0.514   6.813   6.131 -0.8837 -0.0262 -0.8082
 3893SOL     OW13128   5.422   0.770   0.860  0.1123 -0.3640 -0.6723
 3893SOL    HW113129   5.422   0.790   0.766 -2.6307 -0.3117 -0.7389
 3893SOL    HW213130   5.416   0.855   0.903 -0.1990 -0.4626 -0.5163
 3894SOL     OW13131   2.816   1.840   3.138 -0.3573  0.7211 -1.0642
 3894SOL    HW113132   2.752   1.771   3.120 -0.3866  0.8964 -1.6379
 3894SOL    HW213133   2.795   1.869   3.227  0.9046 -1.3603 -0.0193
 3895SOL     OW13134   3.314   3.113   5.628 -0.2844  0.0490 -0.1869
 3895SOL    HW113135   3.379   3.044   5.612  2.4401  2.2721  0.5234
 3895SOL    HW213136   3.252   3.105   5.555  0.1950 -2.7506 -0.3949
 3896SOL     OW13137   0.425   6.908   0.318 -0.5092 -0.1417  0.5152
 3896SOL    HW113138   0.409   6.989   0.270 -2.0410 -0.1326  0.9965
 3896SOL    HW213139   0.424   6.933   0.410 -2.5881 -0.8967  0.7621
 3897SOL     OW13140   0.825   1.690   6.661  0.4251  0.2768  0.0725
 3897SOL    HW113141   0.886   1.709   6.732 -0.1959  0.0035  0.6872
 3897SOL    HW213142   0.817   1.773   6.614  1.3694  0.2777 -0.0959
 3898SOL     OW13143   4.182   5.997   1.416 -0.0577 -0.1162 -0.3198
 3898SOL    HW113144   4.108   5.980   1.358 -0.0466  1.4571 -0.8195
 3898SOL    HW213145   4.213   6.084   1.392  0.7971  0.0196  1.1420
 3899SOL     OW13146   3.109   5.058   1.830  0.9527 -0.2927  0.0291
 3899SOL    HW113147   3.123   5.088   1.919 -0.0951  2.2226 -0.5890
 3899SOL    HW213148   3.080   4.967   1.840 -1.1557  0.5344  2.4002
 3900SOL     OW13149   4.608   6.882   2.566  0.1041  0.0382 -0.2079
 3900SOL    HW113150   4.527   6.863   2.612  0.3117 -0.0236  0.1346
 3900SOL    HW213151   4.676   6.879   2.633  0.7968 -2.6003 -0.9259
 3901SOL     OW13152   0.379   6.020   6.674  0.0458 -0.2213 -0.0803
 3901SOL    HW113153   0.444   5.965   6.629  0.7373  0.1724  0.4264
 3901SOL    HW213154   0.412   6.109   6.664 -1.4690  0.2253 -1.5681
 3902SOL     OW13155   4.349   2.345   5.910 -0.4476  0.3286 -0.1531
 3902SOL    HW113156   4.358   2.293   5.990  0.7920  1.3008  0.3797
 3902SOL    HW213157   4.415   2.309   5.851  0.5010  1.3105  0.2611
 3903SOL     OW13158   3.434   2.869   4.601 -0.6392 -0.5159  0.3165
 3903SOL    HW113159   3.399   2.848   4.514 -0.0268  1.0946 -0.3598
 3903SOL    HW213160   3.362   2.916   4.645 -0.2980  0.3942 -0.0685
 3904SOL     OW13161   0.047   3.207   5.232 -0.3895 -0.5858 -0.1937
 3904SOL    HW113162  -0.029   3.227   5.178 -1.1971 -3.4715 -0.3196
 3904SOL    HW213163   0.120   3.206   5.170 -0.6447 -0.0718 -0.5063
 3905SOL     OW13164   1.986   1.903   7.109  0.4782  0.2614  0.3898
 3905SOL    HW113165   2.053   1.860   7.055 -0.0371 -0.4338  0.2872
 3905SOL    HW213166   1.923   1.833   7.129 -0.7214  1.1127 -0.3065
 3906SOL     OW13167   5.738   4.525   2.874  0.7369 -0.2508  0.4544
 3906SOL    HW113168   5.752   4.530   2.779 -0.9430 -0.6846  0.1490
 3906SOL    HW213169   5.803   4.585   2.911  1.0412  0.3738 -1.0093
 3907SOL     OW13170   0.842   1.354   1.159 -0.1963 -0.2167 -0.0792
 3907SOL    HW113171   0.808   1.366   1.070 -1.8271  0.5471  0.5944
 3907SOL    HW213172   0.908   1.423   1.168  0.4163 -0.6848 -0.8894
 3908SOL     OW13173   2.264   6.453   0.570 -0.0916 -0.0932 -0.2910
 3908SOL    HW113174   2.286   6.361   0.555 -2.4598 -0.4753 -1.9753
 3908SOL    HW213175   2.348   6.499   0.563  0.8138 -1.8612 -2.0658
 3909SOL     OW13176   6.955   0.153   6.573 -0.1180  0.1784 -0.3121
 3909SOL    HW113177   6.996   0.229   6.614 -0.5789  1.6269 -2.3517
 3909SOL    HW213178   6.898   0.117   6.640  1.5725  0.4196  1.3354
 3910SOL     OW13179   6.923   5.166   5.895 -0.8818 -0.3315 -0.0137
 3910SOL    HW113180   6.828   5.162   5.903 -0.7761  0.0211  1.8272
 3910SOL    HW213181   6.955   5.167   5.985  0.9380 -1.7231 -0.5731
 3911SOL     OW13182   2.799   2.630   3.182  0.5166  0.1346  0.0843
 3911SOL    HW113183   2.747   2.685   3.123  1.2311 -1.0618 -1.7407
 3911SOL    HW213184   2.748   2.626   3.263 -0.4027  1.9920 -0.3477
 3912SOL     OW13185   4.087   6.259   0.406  0.6332  0.0508  0.1975
 3912SOL    HW113186   4.161   6.319   0.396  0.6448  0.0570  0.3257
 3912SOL    HW213187   4.061   6.238   0.316 -0.7288  1.8800  0.1103
 3913SOL     OW13188   0.282   1.876   4.402 -0.1875 -0.2811  0.3549
 3913SOL    HW113189   0.220   1.941   4.370  0.0193 -0.1029  0.3166
 3913SOL    HW213190   0.259   1.863   4.494  1.1365  1.4403  0.9660
 3914SOL     OW13191   0.820   4.295   6.950  0.2986  0.2761  0.0856
 3914SOL    HW113192   0.802   4.233   7.021 -3.6565  1.7990  0.6628
 3914SOL    HW213193   0.826   4.241   6.872  0.1406 -1.0901  0.9812
 3915SOL     OW13194   6.744   2.422   6.812 -0.7490  0.0456 -0.5037
 3915SOL    HW113195   6.791   2.346   6.777  1.0681  1.5297 -1.4791
 3915SOL    HW213196   6.813   2.483   6.838 -2.1437  1.0965  0.9163
 3916SOL     OW13197   0.057   5.891   1.535 -0.1293 -0.4131 -0.1789
 3916SOL    HW113198   0.006   5.823   1.491 -0.7097 -0.2857  0.2940
 3916SOL    HW213199   0.036   5.881   1.627 -0.8583  0.9291 -0.1761
 3917SOL     OW13200   0.516   2.775   3.311 -0.7843 -0.3562 -0.3872
 3917SOL    HW113201   0.583   2.828   3.267  1.0645 -1.1917  1.2749
 3917SOL    HW213202   0.464   2.839   3.360  0.7085  0.0921  0.6942
 3918SOL     OW13203   6.327   4.220   5.556  0.3339  0.4793  0.0939
 3918SOL    HW113204   6.333   4.127   5.576  2.5741  0.7387  0.9843
 3918SOL    HW213205   6.284   4.225   5.471  0.2187 -1.3561  0.0209
 3919SOL     OW13206   5.126   2.497   1.963  0.1374 -0.4946 -0.6734
 3919SOL    HW113207   5.187   2.520   1.894 -0.1174 -1.2792 -1.1740
 3919SOL    HW213208   5.082   2.418   1.931 -0.7375 -0.2651 -0.0794
 3920SOL     OW13209   4.447   3.486   3.588 -0.0996  0.2829 -0.1102
 3920SOL    HW113210   4.403   3.499   3.504 -0.7742 -0.3385  0.1436
 3920SOL    HW213211   4.537   3.515   3.572 -0.3909  0.7958 -0.8580
 3921SOL     OW13212   2.505   5.542   0.910 -0.5438 -0.2473  0.0629
 3921SOL    HW113213   2.525   5.485   0.984  0.3740 -1.4305 -1.0560
 3921SOL    HW213214   2.450   5.489   0.852 -1.4409  0.7341 -0.0301
 3922SOL     OW13215   0.199   2.012   4.049 -0.5753  0.3138  0.0647
 3922SOL    HW113216   0.230   2.102   4.042 -0.2074  0.1504 -0.5022
 3922SOL    HW213217   0.175   2.002   4.141  2.0137  0.1524  0.7781
 3923SOL     OW13218   5.407   6.521   6.368  0.4574  0.5908 -0.2458
 3923SOL    HW113219   5.407   6.481   6.281  1.3340  1.5296 -0.7013
 3923SOL    HW213220   5.500   6.538   6.386  0.4973 -1.2514  1.6789
 3924SOL     OW13221   6.416   4.428   0.858  0.3501  0.2301  0.2799
 3924SOL    HW113222   6.486   4.364   0.841  0.3710  1.1264 -4.5881
 3924SOL    HW213223   6.336   4.375   0.865  0.8840 -0.5497  0.5420
 3925SOL     OW13224   1.687   4.681   2.558 -0.7359  0.0223 -0.1947
 3925SOL    HW113225   1.709   4.698   2.466  1.0528  2.6601  0.5826
 3925SOL    HW213226   1.752   4.617   2.586 -1.6653 -1.2559 -0.8775
 3926SOL     OW13227   5.893   1.742   1.056  0.4978 -0.9042  0.1510
 3926SOL    HW113228   5.854   1.670   1.006  0.0907 -0.7192  0.1997
 3926SOL    HW213229   5.972   1.765   1.007  0.1199 -0.7452 -0.3945
 3927SOL     OW13230   4.982   3.476   6.253  0.1916 -0.0924 -0.1276
 3927SOL    HW113231   4.983   3.477   6.349 -0.6702  0.4430 -0.1129
 3927SOL    HW213232   4.965   3.385   6.230  1.3749 -0.4148  0.1974
 3928SOL     OW13233   5.667   3.311   0.709 -0.1772  0.4378 -0.0623
 3928SOL    HW113234   5.603   3.363   0.661  0.1325  0.2641 -0.6811
 3928SOL    HW213235   5.724   3.274   0.641  0.3504  0.2871  0.4471
 3929SOL     OW13236   6.836   1.570   5.225 -0.9455 -0.1763  0.4581
 3929SOL    HW113237   6.899   1.551   5.156 -1.2135 -0.8381  0.3802
 3929SOL    HW213238   6.776   1.495   5.223 -0.4365 -0.6651  2.0060
 3930SOL     OW13239   4.397   4.923   3.865  0.6000 -0.1122  0.4598
 3930SOL    HW113240   4.349   4.963   3.937  0.3678 -1.2770  0.9688
 3930SOL    HW213241   4.330   4.909   3.797  0.4448 -0.6643  0.7204
 3931SOL     OW13242   5.722   4.609   3.968 -0.2926 -0.4042  0.0180
 3931SOL    HW113243   5.810   4.573   3.959  0.0695  0.7216 -1.2589
 3931SOL    HW213244   5.735   4.703   3.978 -1.3866  0.0545 -2.2719
 3932SOL     OW13245   0.072   5.310   3.910  0.2440 -0.1837  0.2031
 3932SOL    HW113246   0.079   5.404   3.896 -0.2584 -0.0738  0.6688
 3932SOL    HW213247  -0.013   5.286   3.875  0.5755 -0.5566 -0.3667
 3933SOL     OW13248   0.814   0.930   4.978  0.0185  0.8899 -0.1047
 3933SOL    HW113249   0.876   0.975   5.035  1.7699 -0.2902 -0.9939
 3933SOL    HW213250   0.854   0.935   4.891  0.2446 -2.1712 -0.2634
 3934SOL     OW13251   1.190   6.749   1.367 -0.0313 -0.5789  0.0805
 3934SOL    HW113252   1.131   6.707   1.429 -0.3029  0.0674  0.2720
 3934SOL    HW213253   1.213   6.681   1.304 -2.3621 -0.4351 -1.0317
 3935SOL     OW13254   2.369   4.008   6.354 -0.1757 -0.9453 -0.2218
 3935SOL    HW113255   2.427   4.083   6.345  0.5543 -1.1360  2.0413
 3935SOL    HW213256   2.412   3.938   6.305  0.7356 -0.6702  0.1677
 3936SOL     OW13257   4.540   1.956   4.343  0.0481  0.0175 -0.5734
 3936SOL    HW113258   4.578   2.021   4.285  0.6703 -0.2223 -0.4522
 3936SOL    HW213259   4.525   2.003   4.425  1.7116 -0.2671 -0.0567
 3937SOL     OW13260   3.182   4.151   5.293 -0.1109  0.4269  0.3588
 3937SOL    HW113261   3.143   4.144   5.380 -0.4651 -1.0668  0.1172
 3937SOL    HW213262   3.122   4.101   5.237  0.1461  1.3099 -0.7350
 3938SOL     OW13263   1.973   6.926   5.473  0.0980 -0.4666  0.5055
 3938SOL    HW113264   2.024   6.999   5.437  2.8117 -1.7820  1.3684
 3938SOL    HW213265   1.907   6.907   5.406  0.2836  1.7642 -0.3992
 3939SOL     OW13266   0.536   1.581   4.853 -0.3079 -0.1791 -0.5259
 3939SOL    HW113267   0.541   1.575   4.757  0.4053 -1.1683 -0.4461
 3939SOL    HW213268   0.445   1.558   4.873 -0.5169  0.2337 -0.9755
 3940SOL     OW13269   0.353   1.336   0.175  0.8653 -0.0646 -0.1280
 3940SOL    HW113270   0.326   1.260   0.123  2.6955  0.2903 -1.6969
 3940SOL    HW213271   0.435   1.309   0.216  0.8761  0.6375  0.3262
 3941SOL     OW13272   2.128   3.341   2.462 -0.3209  0.2154 -0.0681
 3941SOL    HW113273   2.212   3.373   2.497 -1.5734  1.6370  1.8749
 3941SOL    HW213274   2.149   3.258   2.421  2.1480  0.8222 -0.1866
 3942SOL     OW13275   0.288   2.553   1.517 -0.0894 -0.5817 -0.4376
 3942SOL    HW113276   0.255   2.494   1.584  1.0049 -0.9050 -0.1608
 3942SOL    HW213277   0.258   2.640   1.544 -0.9117 -0.8814 -0.3452
 3943SOL     OW13278   2.624   3.772   2.340 -0.6031  0.3628 -0.0996
 3943SOL    HW113279   2.643   3.752   2.431  3.2223 -1.2242 -1.0485
 3943SOL    HW213280   2.627   3.868   2.335 -0.3175  0.4468  1.3164
 3944SOL     OW13281   1.444   5.050   6.959 -0.0856  0.0564 -0.1203
 3944SOL    HW113282   1.481   5.131   6.925  2.4874 -0.9814 -0.0211
 3944SOL    HW213283   1.365   5.077   7.006 -0.5073  2.1909 -1.9407
 3945SOL     OW13284   0.885   2.997   6.622 -0.2178  0.1481  0.1184
 3945SOL    HW113285   0.822   3.059   6.587  0.6623  1.0888  0.1760
 3945SOL    HW213286   0.843   2.912   6.612 -1.7741  0.8043  0.7409
 3946SOL     OW13287   6.515   6.634   3.224 -0.0453  0.0814 -0.3142
 3946SOL    HW113288   6.600   6.590   3.222 -0.1866 -0.1877 -0.4232
 3946SOL    HW213289   6.457   6.572   3.267 -0.4606 -0.2237 -1.2822
 3947SOL     OW13290   1.962   5.535   1.531  0.4062 -0.1322 -0.1014
 3947SOL    HW113291   2.011   5.454   1.516  0.4668 -0.3837  1.3345
 3947SOL    HW213292   1.969   5.583   1.448  0.5051 -1.5167 -0.9162
 3948SOL     OW13293   3.164   6.720   3.214  0.1718 -0.3587 -0.4206
 3948SOL    HW113294   3.228   6.700   3.282  1.9535  0.1872 -1.8798
 3948SOL    HW213295   3.205   6.788   3.161 -1.0269 -0.9829 -2.2323
 3949SOL     OW13296   6.591   5.658   1.332 -0.2088 -0.1713  0.5081
 3949SOL    HW113297   6.497   5.654   1.314  0.1534 -1.5619 -1.4515
 3949SOL    HW213298   6.608   5.580   1.385  0.1148 -1.1742 -0.9850
 3950SOL     OW13299   0.862   5.403   2.124 -0.4564 -0.2758 -0.9263
 3950SOL    HW113300   0.950   5.425   2.093 -0.1996  0.2782  0.1411
 3950SOL    HW213301   0.855   5.309   2.110  1.3212 -0.8380  1.3396
 3951SOL     OW13302   5.736   6.550   4.087  0.0666  0.4503 -0.1058
 3951SOL    HW113303   5.767   6.627   4.038  2.2626 -0.5602 -0.4103
 3951SOL    HW213304   5.735   6.578   4.178  0.5838  0.9266 -0.2414
 3952SOL     OW13305   6.842   1.012   0.821  0.2880  0.5506 -0.3182
 3952SOL    HW113306   6.788   0.982   0.894 -2.3973  0.0804 -2.3770
 3952SOL    HW213307   6.886   0.933   0.790  0.4343  0.5193 -0.0388
 3953SOL     OW13308   3.557   2.887   1.971  0.7522  0.3393 -0.2569
 3953SOL    HW113309   3.481   2.918   1.923 -0.1440 -1.7295 -0.2899
 3953SOL    HW213310   3.616   2.853   1.904  0.6064 -0.2788 -0.0801
 3954SOL     OW13311   0.462   2.275   6.773  0.1515 -0.1006 -0.1596
 3954SOL    HW113312   0.376   2.308   6.798 -0.1692 -0.6016 -0.5838
 3954SOL    HW213313   0.445   2.217   6.699  0.7491 -0.8783  0.2956
 3955SOL     OW13314   6.013   3.467   4.486 -0.0440 -0.1472 -0.0922
 3955SOL    HW113315   6.054   3.513   4.413  1.9854  2.2905  2.3885
 3955SOL    HW213316   6.072   3.394   4.505  0.2310  0.1156  0.0620
 3956SOL     OW13317   4.420   5.336   3.881 -0.6777  0.3549  0.6394
 3956SOL    HW113318   4.362   5.411   3.891  0.9308  1.5140  1.9078
 3956SOL    HW213319   4.432   5.302   3.969 -1.7537 -1.7753  0.0384
 3957SOL     OW13320   6.108   5.416   2.814  0.1069 -0.2158  0.0438
 3957SOL    HW113321   6.171   5.472   2.768  0.2238 -0.9631 -0.7409
 3957SOL    HW213322   6.161   5.345   2.851 -0.1991 -0.5342 -0.1220
 3958SOL     OW13323   3.358   4.979   2.222 -0.1172 -0.4074  0.0339
 3958SOL    HW113324   3.434   4.932   2.256  0.6491  0.7646 -0.0370
 3958SOL    HW213325   3.394   5.048   2.168 -1.2774 -0.8167 -1.3263
 3959SOL     OW13326   1.306   0.882   6.965 -0.3590 -0.2394  0.4155
 3959SOL    HW113327   1.339   0.946   7.028 -0.8155  1.0498 -0.6254
 3959SOL    HW213328   1.211   0.882   6.977 -0.5897  1.0528 -1.1966
 3960SOL     OW13329   1.250   4.118   1.761 -0.3935 -0.2634 -0.5910
 3960SOL    HW113330   1.226   4.161   1.843  0.3347 -0.9189 -0.0301
 3960SOL    HW213331   1.169   4.076   1.731 -0.4889 -0.6336  0.1720
 3961SOL     OW13332   3.448   1.668   1.404  0.3110 -0.4960  0.1829
 3961SOL    HW113333   3.533   1.712   1.401  0.7526 -1.3425  0.0065
 3961SOL    HW213334   3.386   1.734   1.372  1.1598 -0.4740 -1.4981
 3962SOL     OW13335   4.120   1.093   3.190  0.3062  0.4793  0.6565
 3962SOL    HW113336   4.183   1.036   3.145 -1.1820 -0.5744 -0.1685
 3962SOL    HW213337   4.124   1.065   3.282  0.5167 -0.0622  0.4857
 3963SOL     OW13338   1.640   3.521   5.850  0.2088 -0.5352 -0.7534
 3963SOL    HW113339   1.729   3.548   5.825  1.2851 -3.4609 -0.5027
 3963SOL    HW213340   1.635   3.429   5.825 -1.5484 -1.4225  2.2650
 3964SOL     OW13341   3.787   6.292   3.627  0.4190  0.2907 -0.3472
 3964SOL    HW113342   3.819   6.251   3.547  0.0907  1.1690 -0.9297
 3964SOL    HW213343   3.778   6.219   3.689 -0.1491 -0.5138 -1.3641
 3965SOL     OW13344   1.247   2.008   3.853 -0.3364 -0.6852  0.3003
 3965SOL    HW113345   1.240   2.084   3.795 -0.9258 -0.9986 -0.0539
 3965SOL    HW213346   1.161   1.966   3.848 -0.7537 -0.1687  2.1909
 3966SOL     OW13347   1.321   0.623   4.918 -0.1507 -0.6949  0.7132
 3966SOL    HW113348   1.318   0.683   4.992 -1.6067 -0.8636  0.8337
 3966SOL    HW213349   1.229   0.602   4.901  0.3136 -3.8217  1.4213
 3967SOL     OW13350   1.115   6.279   0.056 -0.1400 -0.2058  0.3372
 3967SOL    HW113351   1.145   6.314   0.140 -0.7658  1.6803 -0.1652
 3967SOL    HW213352   1.113   6.184   0.069 -0.0600  0.0207  2.3929
 3968SOL     OW13353   0.848   2.525   3.785 -0.3313 -0.0650 -0.0323
 3968SOL    HW113354   0.925   2.477   3.815 -1.3701 -0.6670  1.8460
 3968SOL    HW213355   0.823   2.482   3.703  1.3692  0.2339 -0.7505
 3969SOL     OW13356   6.425   0.532   4.633  0.3306  0.0873 -0.1692
 3969SOL    HW113357   6.468   0.589   4.696 -2.7350 -0.0298  2.2654
 3969SOL    HW213358   6.394   0.592   4.564 -2.4568  1.5552  2.1220
 3970SOL     OW13359   3.597   4.751   0.367 -0.5567  0.2571 -0.1554
 3970SOL    HW113360   3.545   4.679   0.332  0.1343 -1.0100  1.2962
 3970SOL    HW213361   3.535   4.801   0.421 -0.3721 -1.1003  1.3656
 3971SOL     OW13362   1.647   0.251   2.351 -0.1390  1.0281  0.6035
 3971SOL    HW113363   1.711   0.207   2.407  0.9797  1.3818 -0.3362
 3971SOL    HW213364   1.580   0.186   2.335  2.0105 -0.8169 -1.6484
 3972SOL     OW13365   2.621   2.990   1.909  0.2185  0.3773  0.4226
 3972SOL    HW113366   2.611   2.935   1.832  0.1916 -0.1967  0.8284
 3972SOL    HW213367   2.633   3.078   1.875 -0.1678  0.1814 -0.2251
 3973SOL     OW13368   0.232   3.169   5.462 -0.4368 -1.0109  0.2423
 3973SOL    HW113369   0.177   3.198   5.389  0.1324  1.7795  0.8126
 3973SOL    HW213370   0.193   3.087   5.491 -1.4570 -1.5328 -2.3325
 3974SOL     OW13371   5.781   0.419   1.394  0.1733  0.3675  0.2541
 3974SOL    HW113372   5.859   0.449   1.348  0.2283  1.2675  0.9155
 3974SOL    HW213373   5.770   0.328   1.365  0.9071  0.5272 -0.5767
 3975SOL     OW13374   5.701   5.974   4.954  0.4360 -0.3541  0.2146
 3975SOL    HW113375   5.656   5.897   4.918  0.7658  0.1603 -1.3967
 3975SOL    HW213376   5.793   5.961   4.930  0.5814  0.2546  0.4361
 3976SOL     OW13377   5.243   0.853   5.663  0.1529 -0.1864  0.0216
 3976SOL    HW113378   5.174   0.816   5.608  0.2958 -0.4907  0.0424
 3976SOL    HW213379   5.198   0.883   5.741  0.1563 -1.2124  0.4333
 3977SOL     OW13380   6.930   3.038   5.843 -0.0230  0.2807  0.2943
 3977SOL    HW113381   6.864   3.097   5.879  1.1178  1.9488 -0.2621
 3977SOL    HW213382   6.990   3.021   5.916 -0.2266 -0.0138  0.3940
 3978SOL     OW13383   4.867   4.026   2.686  0.2983  0.5489  0.5392
 3978SOL    HW113384   4.805   4.085   2.729 -1.9692 -0.6204 -0.9375
 3978SOL    HW213385   4.823   3.941   2.685  1.2504  0.0023 -1.9053
 3979SOL     OW13386   4.892   4.423   6.342 -0.3283 -0.1031  1.1836
 3979SOL    HW113387   4.850   4.491   6.289  0.6226  0.6241  1.3569
 3979SOL    HW213388   4.969   4.397   6.292  0.2231  0.1265  1.8949
 3980SOL     OW13389   4.063   4.591   7.106  0.8012 -0.3332 -0.1645
 3980SOL    HW113390   4.016   4.508   7.109  0.8905 -0.3729  0.2398
 3980SOL    HW213391   4.063   4.622   7.197  2.4287 -0.8106  0.0263
 3981SOL     OW13392   5.778   4.660   3.403  0.4120 -0.1432 -0.0739
 3981SOL    HW113393   5.803   4.570   3.425  0.7416 -0.2964 -1.0174
 3981SOL    HW213394   5.717   4.650   3.329  1.4476  0.4447 -1.0388
 3982SOL     OW13395   3.846   6.967   4.534  0.2140 -0.7900 -0.2718
 3982SOL    HW113396   3.772   6.968   4.474 -0.5556 -0.7610  0.6624
 3982SOL    HW213397   3.869   7.059   4.545 -1.1178 -0.6045  1.2396
 3983SOL     OW13398   4.113   6.568   4.125 -0.1089  0.2565 -0.8643
 3983SOL    HW113399   4.059   6.593   4.200  0.9422  1.7315 -0.5553
 3983SOL    HW213400   4.069   6.491   4.089 -1.0937 -0.0029  0.7685
 3984SOL     OW13401   6.660   0.606   6.352 -0.3266  0.2129 -0.3724
 3984SOL    HW113402   6.678   0.630   6.261 -0.5673 -3.4120 -1.5470
 3984SOL    HW213403   6.705   0.522   6.364 -2.3448 -0.6552  2.0073
 3985SOL     OW13404   2.772   3.034   2.365  0.5262 -0.1533  0.0347
 3985SOL    HW113405   2.809   2.945   2.367  0.1148 -0.3345 -0.1965
 3985SOL    HW213406   2.678   3.021   2.379  0.4478  0.2383 -0.1143
 3986SOL     OW13407   4.639   1.810   0.432 -0.2497  0.3487 -0.3804
 3986SOL    HW113408   4.604   1.772   0.351  2.5450  0.7083 -1.8822
 3986SOL    HW213409   4.631   1.904   0.420  1.6107  0.4600 -1.0119
 3987SOL     OW13410   7.118   6.251   5.615  0.4434 -0.4274 -0.2508
 3987SOL    HW113411   7.041   6.304   5.596  1.6804  1.9641  1.0120
 3987SOL    HW213412   7.120   6.244   5.711  2.0046 -0.0748 -0.2289
 3988SOL     OW13413   5.768   6.227   2.566 -0.3117 -0.3063  0.0099
 3988SOL    HW113414   5.711   6.304   2.561  0.3820  0.3508  1.4958
 3988SOL    HW213415   5.770   6.205   2.659  2.2206  0.0354  0.1088
 3989SOL     OW13416   1.182   4.304   5.970 -0.7372 -0.3251 -0.7695
 3989SOL    HW113417   1.234   4.235   5.929 -2.0044 -1.1225 -1.1120
 3989SOL    HW213418   1.155   4.266   6.054 -0.4391  0.2360 -0.4142
 3990SOL     OW13419   0.815   5.800   1.050  0.2420 -0.2482  0.1960
 3990SOL    HW113420   0.801   5.725   0.993 -1.0693  0.2846 -0.2208
 3990SOL    HW213421   0.892   5.844   1.014 -0.2551 -0.2203 -0.8505
 3991SOL     OW13422   1.125   4.294   4.525 -0.4592  0.3023 -0.2353
 3991SOL    HW113423   1.033   4.318   4.511 -0.4495  2.1402  2.0789
 3991SOL    HW213424   1.134   4.291   4.620  1.8321 -0.0520 -0.4160
 3992SOL     OW13425   0.016   0.739   2.920 -0.0380 -0.2432  0.1964
 3992SOL    HW113426   0.031   0.645   2.923 -2.5904 -0.8439 -1.9514
 3992SOL    HW213427   0.035   0.764   2.830  0.7136  1.3860  0.7524
 3993SOL     OW13428   5.637   5.861   6.352  0.8167 -0.2449  0.1817
 3993SOL    HW113429   5.657   5.784   6.301 -0.1295  0.0360 -0.6480
 3993SOL    HW213430   5.654   5.836   6.443 -1.0994 -2.0084  0.1214
 3994SOL     OW13431   5.151   1.891   1.664  0.3088 -0.0653 -0.2129
 3994SOL    HW113432   5.122   1.824   1.601  0.5406  0.3282 -0.7487
 3994SOL    HW213433   5.129   1.974   1.622  0.9489  0.2148 -0.0078
 3995SOL     OW13434   4.223   2.036   6.390 -0.6677 -0.4339 -0.4673
 3995SOL    HW113435   4.255   2.083   6.467 -1.5309 -0.0123 -0.3504
 3995SOL    HW213436   4.292   1.973   6.369  0.2095  0.4178 -0.2082
 3996SOL     OW13437   5.882   1.293   6.327 -0.7979 -0.3186 -0.0742
 3996SOL    HW113438   5.888   1.209   6.372 -0.6911 -0.0863  0.3512
 3996SOL    HW213439   5.843   1.272   6.242 -2.4588 -0.5565  0.7035
 3997SOL     OW13440   6.416   6.983   5.669  0.1449 -0.1690  0.1148
 3997SOL    HW113441   6.379   7.032   5.596  0.9663  1.1034  0.5066
 3997SOL    HW213442   6.495   6.943   5.634  1.7013  2.1273  0.7100
 3998SOL     OW13443   4.008   2.067   0.916  0.1985 -0.7773 -0.6760
 3998SOL    HW113444   4.033   2.066   0.824  2.8584  0.3163 -0.0597
 3998SOL    HW213445   3.976   2.156   0.932 -0.8245 -1.1399 -0.6619
 3999SOL     OW13446   2.231   1.851   3.895 -0.8544  0.2920  0.0229
 3999SOL    HW113447   2.256   1.844   3.803 -1.7118  2.6122 -0.4631
 3999SOL    HW213448   2.151   1.798   3.902 -1.2054  0.6941 -0.7673
 4000SOL     OW13449   3.133   5.041   0.824  0.1023  0.0344  0.6161
 4000SOL    HW113450   3.090   5.022   0.741 -0.1865 -0.4134  0.8603
 4000SOL    HW213451   3.062   5.053   0.886  0.3046  1.0155  0.6723
 4001SOL     OW13452   3.865   4.952   0.307  0.6233  0.4661  0.0848
 4001SOL    HW113453   3.828   4.961   0.219 -0.4798 -0.8541  0.3874
 4001SOL    HW213454   3.940   4.894   0.295 -0.3843 -0.9133  0.1953
 4002SOL     OW13455   1.211   2.006   3.556 -0.0205  0.1874 -0.1161
 4002SOL    HW113456   1.250   1.945   3.494  2.0245  0.1782  1.1130
 4002SOL    HW213457   1.121   2.017   3.525 -0.4046 -3.1915 -0.5844
 4003SOL     OW13458   6.136   4.560   0.241 -0.1120  0.9343  0.5383
 4003SOL    HW113459   6.044   4.585   0.241  0.2083  2.2578  1.5481
 4003SOL    HW213460   6.144   4.495   0.171 -1.6014  1.5734 -0.2709
 4004SOL     OW13461   7.029   6.550   3.073  0.9109 -0.8714  0.0067
 4004SOL    HW113462   7.081   6.496   3.134  0.2358 -1.3054  0.2042
 4004SOL    HW213463   6.972   6.489   3.029  1.2860 -0.5319 -0.9810
 4005SOL     OW13464   1.826   5.142   0.449  0.2520  0.4474 -0.7786
 4005SOL    HW113465   1.752   5.201   0.430 -0.2547  0.0729 -0.0075
 4005SOL    HW213466   1.785   5.064   0.486  1.0749  0.4630  0.1829
 4006SOL     OW13467   4.557   1.061   5.377  0.5126  0.5900 -0.1352
 4006SOL    HW113468   4.585   0.987   5.431  0.3992  0.9124  0.3732
 4006SOL    HW213469   4.467   1.077   5.404 -0.1252 -0.3092 -1.6212
 4007SOL     OW13470   5.115   4.280   6.760 -0.3670  0.2777 -0.1847
 4007SOL    HW113471   5.189   4.328   6.798 -0.2842  0.4648 -0.5771
 4007SOL    HW213472   5.143   4.258   6.671 -0.2877 -0.7619  0.0859
 4008SOL     OW13473   4.661   4.711   5.898 -0.1320  0.4683 -0.1418
 4008SOL    HW113474   4.669   4.785   5.839 -0.1122 -0.4608 -1.3502
 4008SOL    HW213475   4.608   4.647   5.849  0.1826 -0.4674  0.7059
 4009SOL     OW13476   6.469   4.939   7.080 -0.1199 -0.9165 -0.3081
 4009SOL    HW113477   6.514   4.886   7.014  1.5299  1.3705 -1.1390
 4009SOL    HW213478   6.412   4.997   7.030  0.5779  0.3236  0.2668
 4010SOL     OW13479   3.445   3.228   6.458 -0.8716 -0.6333  0.5735
 4010SOL    HW113480   3.423   3.321   6.459 -0.5844 -0.5640  1.3002
 4010SOL    HW213481   3.539   3.226   6.438 -0.9586 -0.7936  0.1629
 4011SOL     OW13482   1.917   5.112   1.038 -0.4734  0.0211  0.5996
 4011SOL    HW113483   1.827   5.123   1.009 -1.0390  1.0701  2.5482
 4011SOL    HW213484   1.965   5.185   0.999 -0.6088 -0.1461  0.1169
 4012SOL     OW13485   4.992   6.687   6.575  0.4607 -0.1845 -0.1896
 4012SOL    HW113486   4.977   6.687   6.480 -1.6229 -0.4353  0.1020
 4012SOL    HW213487   5.041   6.606   6.591  1.3483  0.1447 -1.1021
 4013SOL     OW13488   6.311   3.599   0.787 -0.3313  0.8279 -0.1690
 4013SOL    HW113489   6.366   3.521   0.788  0.2854  1.2619  0.5326
 4013SOL    HW213490   6.372   3.672   0.778 -0.9067  1.2434 -0.9305
 4014SOL     OW13491   1.348   1.097   5.197  0.4497  0.4569 -0.0410
 4014SOL    HW113492   1.335   1.038   5.272  0.4211  0.2486 -0.2092
 4014SOL    HW213493   1.355   1.039   5.122 -0.5657  0.7130 -0.3444
 4015SOL     OW13494   4.050   2.520   7.037 -0.2313  0.0839 -0.3294
 4015SOL    HW113495   4.094   2.603   7.055 -1.0537  0.0416  2.2825
 4015SOL    HW213496   3.996   2.538   6.960  0.0629  1.7992 -0.1836
 4016SOL     OW13497   1.110   2.533   1.286 -0.1557  0.6219 -0.6627
 4016SOL    HW113498   1.167   2.505   1.358 -1.5819 -0.1682  0.2145
 4016SOL    HW213499   1.092   2.452   1.237 -2.5213  0.3013  0.5846
 4017SOL     OW13500   2.335   2.146   2.252 -0.4003  0.3826  0.1894
 4017SOL    HW113501   2.292   2.062   2.269 -1.3368  0.8897  0.3908
 4017SOL    HW213502   2.373   2.171   2.336  0.9931 -0.4328 -0.1658
 4018SOL     OW13503   3.398   0.043   5.452  0.5374  0.0113 -0.6112
 4018SOL    HW113504   3.306   0.071   5.443  0.8710  1.3565 -0.0456
 4018SOL    HW213505   3.423   0.071   5.540  1.4840 -0.4071 -0.7412
 4019SOL     OW13506   3.356   6.677   3.862 -0.2470 -0.7500  0.0707
 4019SOL    HW113507   3.385   6.587   3.878  0.3681 -0.4870  0.4582
 4019SOL    HW213508   3.307   6.701   3.940 -1.9571 -1.3462 -0.7600
 4020SOL     OW13509   5.435   4.048   2.976 -0.3224  0.1709  0.7785
 4020SOL    HW113510   5.473   4.131   2.949 -0.2220  0.4884  1.8493
 4020SOL    HW213511   5.442   4.048   3.072 -0.6905 -0.8885  0.8210
 4021SOL     OW13512   7.024   4.453   5.173  0.3267 -0.4611 -0.3913
 4021SOL    HW113513   7.064   4.485   5.092  0.2141  0.2261 -0.1881
 4021SOL    HW213514   6.939   4.417   5.146 -0.4817  1.3189 -0.3984
 4022SOL     OW13515   2.226   0.522   3.786  0.9276  0.5200  0.1784
 4022SOL    HW113516   2.305   0.542   3.736  1.1098  1.4847  0.8166
 4022SOL    HW213517   2.237   0.571   3.868  0.5801 -0.8912  1.1049
 4023SOL     OW13518   5.732   2.573   4.935 -0.1598  0.1205  0.2559
 4023SOL    HW113519   5.655   2.542   4.983  0.1162 -1.7300 -0.4160
 4023SOL    HW213520   5.701   2.585   4.845  0.0914  0.4288  0.2070
 4024SOL     OW13521   0.450   4.637   2.043  0.4718 -0.4179 -0.6993
 4024SOL    HW113522   0.357   4.646   2.060  0.1174 -2.0699 -1.5181
 4024SOL    HW213523   0.482   4.577   2.111  0.9036  0.0189 -0.5125
 4025SOL     OW13524   3.537   6.721   4.670 -0.4300 -0.2748  0.3923
 4025SOL    HW113525   3.469   6.664   4.707  0.0417  0.7255  2.9647
 4025SOL    HW213526   3.616   6.668   4.670 -0.4962 -0.3740  0.5622
 4026SOL     OW13527   2.875   1.389   2.546 -0.0726  0.1640  0.4830
 4026SOL    HW113528   2.859   1.360   2.457  1.0489 -0.2202  0.3899
 4026SOL    HW213529   2.826   1.471   2.554  2.3186  1.9501 -1.5555
 4027SOL     OW13530   7.129   2.629   0.030  0.5274  0.2860  0.2589
 4027SOL    HW113531   7.125   2.707   0.085 -0.0065  0.0651  0.5448
 4027SOL    HW213532   7.158   2.661  -0.055 -0.9527  1.0016  0.0014
 4028SOL     OW13533   4.136   4.151   2.046  0.3169  0.0435 -0.0954
 4028SOL    HW113534   4.209   4.109   2.091  2.0952  1.9117 -1.0545
 4028SOL    HW213535   4.153   4.136   1.953 -0.9259 -0.0613 -0.3259
 4029SOL     OW13536   1.297   5.923   4.469 -0.2286 -0.2227  0.0644
 4029SOL    HW113537   1.217   5.976   4.465 -0.7815 -1.0674 -0.4430
 4029SOL    HW213538   1.368   5.986   4.465 -0.8687  0.5718  0.8205
 4030SOL     OW13539   2.861   4.729   6.390  0.3855 -0.4407  0.4186
 4030SOL    HW113540   2.948   4.755   6.419  0.8711 -1.6692  0.1493
 4030SOL    HW213541   2.801   4.771   6.451  1.1300  0.8085  0.3200
 4031SOL     OW13542   5.900   4.928   6.158  0.4107 -0.2531 -0.2362
 4031SOL    HW113543   5.882   4.840   6.126 -0.7166 -0.7573  1.6619
 4031SOL    HW213544   5.934   4.915   6.247  1.0797  1.1956 -0.2468
 4032SOL     OW13545   1.552   5.814   3.800  0.5793  0.0874  0.0482
 4032SOL    HW113546   1.503   5.744   3.844  0.1174  0.8861  0.8386
 4032SOL    HW213547   1.509   5.823   3.715 -0.5265  0.6077  0.6387
 4033SOL     OW13548   3.827   0.546   2.519  0.0352  0.1314  0.3838
 4033SOL    HW113549   3.790   0.627   2.482 -2.2700 -0.9072  0.2904
 4033SOL    HW213550   3.820   0.482   2.448  2.4515 -0.0720  0.2295
 4034SOL     OW13551   6.566   6.902   5.956  0.1852 -0.2491  0.5312
 4034SOL    HW113552   6.631   6.934   5.893 -0.3423  0.1308  0.1705
 4034SOL    HW213553   6.610   6.909   6.041  1.5571 -2.4189  0.0909
 4035SOL     OW13554   6.027   4.520   2.409 -0.3825  0.6498 -0.4388
 4035SOL    HW113555   5.985   4.455   2.353 -2.3006 -0.1786  1.8254
 4035SOL    HW213556   6.047   4.593   2.350 -0.6676 -0.8684 -2.5095
 4036SOL     OW13557   1.237   4.624   5.583  0.1837 -0.3215 -0.4920
 4036SOL    HW113558   1.254   4.717   5.600 -0.5181 -0.1697 -0.6109
 4036SOL    HW213559   1.167   4.624   5.518 -0.2681 -0.9452 -0.0129
 4037SOL     OW13560   0.517   7.049   6.618  0.0009  0.0343  0.3217
 4037SOL    HW113561   0.465   7.005   6.685  0.0930 -1.5616 -0.5918
 4037SOL    HW213562   0.463   7.044   6.539  0.4566  0.6793 -0.0365
 4038SOL     OW13563   2.232   5.989   3.989  0.5355 -0.6167  0.4462
 4038SOL    HW113564   2.147   6.018   4.021  1.0407  0.0807  1.2183
 4038SOL    HW213565   2.280   6.070   3.971  0.0528 -0.9340 -2.8748
 4039SOL     OW13566   1.046   2.859   6.796 -0.5718 -0.0428 -0.2243
 4039SOL    HW113567   1.021   2.906   6.717 -0.3958 -2.1288 -1.5951
 4039SOL    HW213568   1.136   2.888   6.814 -0.5395  0.2913 -0.9111
 4040SOL     OW13569   5.529   5.396   3.458  0.1933  0.2788  0.3093
 4040SOL    HW113570   5.530   5.450   3.536  0.1877 -0.8951  1.1523
 4040SOL    HW213571   5.437   5.377   3.442  0.1574  0.9260 -0.2838
 4041SOL     OW13572   1.523   0.618   6.336 -0.5657 -0.4103 -0.2574
 4041SOL    HW113573   1.514   0.532   6.376  0.5186 -0.2391  0.3945
 4041SOL    HW213574   1.440   0.632   6.290 -1.5543 -0.9328  1.2922
 4042SOL     OW13575   3.147   6.889   5.424 -0.2312 -1.2675  0.1437
 4042SOL    HW113576   3.138   6.984   5.418  1.5314 -1.1384 -1.0567
 4042SOL    HW213577   3.145   6.870   5.518  0.2334  0.0445  0.4268
 4043SOL     OW13578   4.925   3.519   4.585 -0.4138  0.1090 -0.1497
 4043SOL    HW113579   4.893   3.453   4.648  0.1728  1.0017  1.1236
 4043SOL    HW213580   4.846   3.556   4.547 -0.7792 -0.4261  0.0727
 4044SOL     OW13581   4.632   0.720   6.360 -0.1830  0.4240  0.2260
 4044SOL    HW113582   4.552   0.755   6.322 -0.3229 -0.6584 -0.5297
 4044SOL    HW213583   4.703   0.759   6.309 -0.3809 -1.4792 -1.6808
 4045SOL     OW13584   1.098   2.035   5.520  0.1376 -0.0265 -0.2823
 4045SOL    HW113585   1.177   1.986   5.543 -0.9020 -1.8296 -0.3946
 4045SOL    HW213586   1.130   2.125   5.504  2.1299 -0.6659 -0.2331
 4046SOL     OW13587   0.039   1.786   0.522 -0.0320  0.2785 -0.9104
 4046SOL    HW113588  -0.022   1.747   0.459 -0.1290  1.5650 -1.6614
 4046SOL    HW213589  -0.018   1.824   0.589  0.0779 -1.2863  0.1108
 4047SOL     OW13590   6.260   1.275   4.633 -0.7106  0.1194  0.2447
 4047SOL    HW113591   6.180   1.322   4.653 -0.7853  0.5918 -1.0912
 4047SOL    HW213592   6.306   1.270   4.717 -1.9359  0.1825  0.9476
 4048SOL     OW13593   5.941   6.850   5.368  0.2753 -0.3415 -0.0049
 4048SOL    HW113594   5.877   6.797   5.415  1.1732  0.1216  1.8804
 4048SOL    HW213595   5.947   6.931   5.420  1.9886 -0.1722 -0.3966
 4049SOL     OW13596   6.738   1.008   4.232  0.2073 -0.1988 -0.1824
 4049SOL    HW113597   6.808   0.968   4.180  1.4839 -2.0206  2.7307
 4049SOL    HW213598   6.676   0.936   4.248 -0.5827  0.5384  0.1440
 4050SOL     OW13599   4.221   1.161   0.840 -0.2376 -0.0496 -0.3429
 4050SOL    HW113600   4.144   1.116   0.875 -1.3484  1.9585 -0.1054
 4050SOL    HW213601   4.236   1.119   0.755 -1.0713 -1.0138 -0.0391
 4051SOL     OW13602   6.186   5.017   1.643 -0.2017  0.2882  0.3157
 4051SOL    HW113603   6.173   5.047   1.733  0.0758 -1.2671  0.9041
 4051SOL    HW213604   6.245   4.942   1.651 -0.6747 -0.2696 -1.0941
 4052SOL     OW13605   0.125   5.144   1.028 -0.5851 -0.3228 -0.1606
 4052SOL    HW113606   0.076   5.066   1.000 -1.4538 -0.0710  0.5903
 4052SOL    HW213607   0.212   5.133   0.990 -0.7377 -1.5986 -0.1793
 4053SOL     OW13608   3.745   0.946   5.977 -0.1504  0.2751  0.2395
 4053SOL    HW113609   3.707   0.908   6.057  0.9305 -0.7898  0.2793
 4053SOL    HW213610   3.673   0.995   5.937 -0.8041  0.5338  1.6850
 4054SOL     OW13611   5.187   4.762   5.332  0.1893  0.1228  0.2522
 4054SOL    HW113612   5.213   4.687   5.386 -1.5056 -0.8900 -0.2605
 4054SOL    HW213613   5.268   4.789   5.289  0.5870 -2.5520 -0.9207
 4055SOL     OW13614   2.293   5.057   0.096  0.6830  0.2229 -0.0266
 4055SOL    HW113615   2.313   5.015   0.012  0.2660  1.5560 -0.8110
 4055SOL    HW213616   2.200   5.037   0.110  0.1252  1.9300 -1.0542
 4056SOL     OW13617   7.009   4.274   4.231 -0.4745 -0.2297 -0.2701
 4056SOL    HW113618   7.019   4.306   4.321  0.7705  0.6664 -0.6903
 4056SOL    HW213619   6.915   4.277   4.215 -0.7058 -0.2399  0.9408
 4057SOL     OW13620   0.892   1.518   1.486 -0.2132 -0.2880  0.2872
 4057SOL    HW113621   0.851   1.451   1.541  1.8227 -0.8323  1.2478
 4057SOL    HW213622   0.837   1.596   1.498 -0.2284 -0.5883  2.5933
 4058SOL     OW13623   3.327   5.311   5.143  0.8178 -0.2158  0.8283
 4058SOL    HW113624   3.335   5.267   5.227  3.7272 -0.3931  0.5612
 4058SOL    HW213625   3.405   5.284   5.095 -0.2721  0.6506 -1.5827
 4059SOL     OW13626   6.315   0.600   4.329 -0.1247  0.2532  0.4948
 4059SOL    HW113627   6.236   0.581   4.379 -0.2947 -2.0647 -0.5282
 4059SOL    HW213628   6.291   0.674   4.274 -1.1047  0.4815  1.1916
 4060SOL     OW13629   5.153   6.260   0.618 -0.5355 -0.4987  0.4887
 4060SOL    HW113630   5.241   6.237   0.587 -1.1625 -1.3929 -0.6762
 4060SOL    HW213631   5.154   6.237   0.711 -0.3107 -2.9508 -0.0534
 4061SOL     OW13632   0.289   6.964   1.990 -0.4497  0.6109 -0.1250
 4061SOL    HW113633   0.294   6.955   1.895  0.9254  3.6328 -0.4477
 4061SOL    HW213634   0.381   6.967   2.019 -0.8058 -1.5049  1.5384
 4062SOL     OW13635   5.619   5.235   4.448  0.0205  0.1524 -0.2482
 4062SOL    HW113636   5.556   5.169   4.480  0.0353 -1.0470 -2.4887
 4062SOL    HW213637   5.704   5.193   4.459  0.4571  1.4860  2.0844
 4063SOL     OW13638   6.224   1.208   5.527  0.1788  0.2329  0.4881
 4063SOL    HW113639   6.221   1.297   5.493  1.0081  0.2060  0.3277
 4063SOL    HW213640   6.175   1.156   5.463  0.6030  0.4006  0.0200
 4064SOL     OW13641   4.148   2.461   1.179  0.2761  0.1222  0.4416
 4064SOL    HW113642   4.143   2.437   1.087  0.6414 -0.1929  0.5005
 4064SOL    HW213643   4.232   2.427   1.208 -1.1354 -2.6783  1.6920
 4065SOL     OW13644   1.992   3.163   0.694  0.0293 -0.1072  0.1612
 4065SOL    HW113645   1.941   3.096   0.740 -0.5014  0.7658  0.8817
 4065SOL    HW213646   2.007   3.126   0.607 -0.8767 -0.8562  0.3024
 4066SOL     OW13647   4.352   0.065   2.658  0.0798 -0.3889  0.0256
 4066SOL    HW113648   4.353  -0.000   2.588  0.4057  0.4558 -0.7709
 4066SOL    HW213649   4.427   0.042   2.714  0.1157 -0.7711 -0.1805
 4067SOL     OW13650   2.826   0.413   0.800 -0.4925  0.5284  0.2903
 4067SOL    HW113651   2.918   0.392   0.812 -0.9516 -0.8598  1.5556
 4067SOL    HW213652   2.808   0.388   0.709  0.3477  0.7944  0.0369
 4068SOL     OW13653   5.534   6.885   4.254  0.5109  0.5804 -0.1235
 4068SOL    HW113654   5.529   6.903   4.161 -2.1774 -0.0099 -0.1502
 4068SOL    HW213655   5.479   6.809   4.268  0.2936  1.0559  2.0523
 4069SOL     OW13656   6.147   4.457   7.015  0.5888  0.2016 -0.1247
 4069SOL    HW113657   6.134   4.383   7.074  0.4111  1.5789  1.6516
 4069SOL    HW213658   6.241   4.473   7.016  0.4110  1.3788  1.3375
 4070SOL     OW13659   3.363   0.268   4.805  0.3821  0.1512  0.1191
 4070SOL    HW113660   3.281   0.306   4.837  0.7529  0.3531  0.8486
 4070SOL    HW213661   3.363   0.288   4.712 -1.6686 -2.1463 -0.5067
 4071SOL     OW13662   3.794   4.822   5.744 -0.1065 -0.2234  0.0234
 4071SOL    HW113663   3.847   4.744   5.728  1.3379  0.9336 -1.0604
 4071SOL    HW213664   3.835   4.864   5.820  0.1568  0.3365 -0.4188
 4072SOL     OW13665   2.923   6.451   0.750 -0.3142  0.3831  0.1865
 4072SOL    HW113666   2.956   6.368   0.715 -0.2335  1.0320 -1.3633
 4072SOL    HW213667   2.909   6.434   0.843 -1.9107 -1.8778 -0.3914
 4073SOL     OW13668   4.586   4.171   1.450 -0.0016  0.3326 -0.7113
 4073SOL    HW113669   4.497   4.205   1.439 -0.2521  0.5646  1.6184
 4073SOL    HW213670   4.642   4.242   1.418 -0.6003  1.6716  1.0694
 4074SOL     OW13671   2.199   5.633   0.696 -0.2531  0.3206  0.3620
 4074SOL    HW113672   2.225   5.622   0.787  0.7470  0.1124  0.0587
 4074SOL    HW213673   2.107   5.604   0.694 -0.4273  0.7722  1.3809
 4075SOL     OW13674   1.529   1.420   0.441 -0.2544  0.1463  0.3806
 4075SOL    HW113675   1.520   1.465   0.357  0.8424  1.0733  0.7345
 4075SOL    HW213676   1.477   1.473   0.502  0.2157  0.3721  0.5918
 4076SOL     OW13677   1.954   3.864   6.067 -0.4272  0.2569  0.3007
 4076SOL    HW113678   2.020   3.883   6.134  2.3418 -1.5532 -1.7022
 4076SOL    HW213679   1.943   3.947   6.020  2.3483  0.1003 -0.7968
 4077SOL     OW13680   6.910   2.768   5.497 -0.1495 -0.0935  0.2141
 4077SOL    HW113681   6.966   2.800   5.426 -1.0460  1.7430  0.2790
 4077SOL    HW213682   6.964   2.773   5.575 -0.0763  0.7157  0.1169
 4078SOL     OW13683   6.121   6.610   2.156 -0.6805 -1.0184  0.1230
 4078SOL    HW113684   6.179   6.593   2.230 -1.0991 -0.7612  0.5153
 4078SOL    HW213685   6.034   6.583   2.187 -0.9873 -0.2114 -0.0009
 4079SOL     OW13686   0.093   5.867   3.640  0.0736  0.3575 -0.0452
 4079SOL    HW113687   0.183   5.882   3.668 -0.0587  0.8716  0.1232
 4079SOL    HW213688   0.076   5.937   3.576 -0.6559  1.1338  0.9652
 4080SOL     OW13689   2.818   2.530   0.407 -0.5205  0.4107 -0.5304
 4080SOL    HW113690   2.787   2.586   0.335 -1.1170 -0.4023 -0.9225
 4080SOL    HW213691   2.885   2.474   0.367 -0.6982  0.1043 -0.3990
 4081SOL     OW13692   7.134   3.087   6.429  0.5947  0.0674  0.3565
 4081SOL    HW113693   7.072   3.110   6.498  0.8012  0.8737  0.2757
 4081SOL    HW213694   7.218   3.076   6.473  0.4663 -0.7357  0.4214
 4082SOL     OW13695   3.876   2.792   0.102 -0.0391 -0.0605 -0.3152
 4082SOL    HW113696   3.942   2.728   0.129  0.9532  0.6679 -0.9278
 4082SOL    HW213697   3.910   2.827   0.019 -1.1319  0.4398 -0.5608
 4083SOL     OW13698   1.456   3.525   0.817 -0.0882 -0.3190  0.8091
 4083SOL    HW113699   1.511   3.520   0.739 -1.6112 -1.6583 -0.2488
 4083SOL    HW213700   1.470   3.441   0.861 -2.0188 -1.1299 -0.0416
 4084SOL     OW13701   5.112   4.407   3.742  0.1590 -0.0953 -0.0942
 4084SOL    HW113702   5.127   4.463   3.666 -0.4358  0.7271  0.3805
 4084SOL    HW213703   5.022   4.426   3.769  0.2140 -0.6950  0.5577
 4085SOL     OW13704   0.558   4.499   2.272  0.2418 -0.3677  0.2525
 4085SOL    HW113705   0.636   4.468   2.227  0.3541 -2.7098  1.8912
 4085SOL    HW213706   0.591   4.554   2.343  0.2551  0.3951 -0.3332
 4086SOL     OW13707   2.045   2.271   5.291 -0.4658 -0.0880 -0.2285
 4086SOL    HW113708   1.966   2.282   5.344 -0.7539 -1.1290 -0.4362
 4086SOL    HW213709   2.072   2.181   5.306 -0.6920 -0.4884 -2.0349
 4087SOL     OW13710   3.868   6.102   4.624 -0.3657 -0.0498 -0.0212
 4087SOL    HW113711   3.805   6.091   4.695 -0.1901 -0.2698  0.1016
 4087SOL    HW213712   3.903   6.014   4.609 -1.0966 -0.1978 -1.0235
 4088SOL     OW13713   4.309   3.972   4.506 -0.5094 -0.1758  0.3734
 4088SOL    HW113714   4.275   4.021   4.580 -0.3826  1.3681 -0.5413
 4088SOL    HW213715   4.232   3.930   4.467 -0.6081 -0.7929  1.2133
 4089SOL     OW13716   2.145   1.936   4.400  0.1501  0.2657  0.2070
 4089SOL    HW113717   2.185   2.021   4.383  0.2014  0.2080  0.0444
 4089SOL    HW213718   2.152   1.925   4.495 -0.4191  0.7236  0.3095
 4090SOL     OW13719   5.066   0.928   5.156  0.3456 -0.0767 -0.7599
 4090SOL    HW113720   5.035   0.962   5.240  0.9515 -0.0031 -0.5596
 4090SOL    HW213721   4.992   0.880   5.120 -0.3379  0.9461 -0.7594
 4091SOL     OW13722   5.003   5.623   0.174 -0.7930  0.1797  0.4186
 4091SOL    HW113723   4.984   5.702   0.224 -0.2000  0.0092  0.9338
 4091SOL    HW213724   4.971   5.551   0.228  0.9995 -0.0953  1.2080
 4092SOL     OW13725   6.659   2.215   2.199  0.1658  0.5345  0.3711
 4092SOL    HW113726   6.628   2.125   2.193 -0.8309  0.8559  0.4094
 4092SOL    HW213727   6.735   2.212   2.256  1.7211 -0.6576 -1.6315
 4093SOL     OW13728   0.006   5.754   2.067 -0.0981 -0.2439 -0.9138
 4093SOL    HW113729   0.095   5.736   2.097 -0.5674 -3.3580 -0.9712
 4093SOL    HW213730  -0.049   5.741   2.144 -0.7036 -1.4524 -1.5007
 4094SOL     OW13731   5.007   2.419   1.131  0.5744 -0.1338  0.3006
 4094SOL    HW113732   5.098   2.446   1.119  0.8295 -0.4683  1.4418
 4094SOL    HW213733   4.958   2.471   1.067  1.4012  0.9847  0.5589
 4095SOL     OW13734   1.175   5.132   4.982  0.3640 -0.1163  0.0264
 4095SOL    HW113735   1.169   5.202   5.048  0.7522 -0.2206  0.1750
 4095SOL    HW213736   1.084   5.105   4.968  0.0545  1.3993 -1.1078
 4096SOL     OW13737   2.557   2.842   2.133 -0.6204  0.5713  0.2865
 4096SOL    HW113738   2.589   2.914   2.079  0.9579  0.2363  0.7231
 4096SOL    HW213739   2.462   2.856   2.139 -0.8481  0.6739 -2.4320
 4097SOL     OW13740   3.850   2.525   6.201  0.2186 -0.0509 -0.1651
 4097SOL    HW113741   3.905   2.582   6.255  2.8793  0.7814 -3.3559
 4097SOL    HW213742   3.778   2.581   6.172  1.0539  0.7757 -0.7094
 4098SOL     OW13743   6.113   2.858   1.673 -0.3715  0.0366 -0.5116
 4098SOL    HW113744   6.175   2.885   1.605 -0.2024  1.2591  0.1178
 4098SOL    HW213745   6.144   2.900   1.753 -0.0926 -2.0286  0.5406
 4099SOL     OW13746   3.503   6.475   1.065 -0.1419  0.4784  0.1487
 4099SOL    HW113747   3.541   6.563   1.065  2.4326 -0.5543  0.4639
 4099SOL    HW213748   3.531   6.436   0.982 -3.0169  0.5584 -0.9853
 4100SOL     OW13749   2.331   6.142   1.470  0.1173 -0.3013  0.3080
 4100SOL    HW113750   2.238   6.126   1.482  0.0539  0.0744  0.3159
 4100SOL    HW213751   2.344   6.233   1.496  0.4321 -0.2594  0.0136
 4101SOL     OW13752   0.105   2.034   4.648  0.7322 -0.0773 -0.2218
 4101SOL    HW113753   0.024   2.060   4.604  0.0295 -0.3544  0.8497
 4101SOL    HW213754   0.161   2.112   4.645 -0.0092  0.4724 -0.0271
 4102SOL     OW13755   5.638   2.785   4.775 -0.1032 -0.1103  0.2488
 4102SOL    HW113756   5.583   2.849   4.730 -0.2927  0.1130  0.7916
 4102SOL    HW213757   5.591   2.765   4.856 -0.8823 -2.1738 -0.6489
 4103SOL     OW13758   2.477   6.177   2.991 -0.2826  0.1798 -0.0931
 4103SOL    HW113759   2.414   6.209   3.056  0.1155 -0.6509  0.7170
 4103SOL    HW213760   2.562   6.185   3.034 -0.1115 -1.3379 -0.1080
 4104SOL     OW13761   5.601   1.215   2.331  0.2741  0.3596 -0.4469
 4104SOL    HW113762   5.558   1.284   2.280 -2.9867  0.4297  2.1049
 4104SOL    HW213763   5.536   1.145   2.337  1.0917 -0.2703  2.2815
 4105SOL     OW13764   7.017   5.222   6.151  0.3550 -0.0401  0.0017
 4105SOL    HW113765   7.098   5.223   6.203 -1.4801  0.8346  3.0740
 4105SOL    HW213766   6.986   5.313   6.153 -1.1317 -0.5127 -0.3691
 4106SOL     OW13767   5.940   3.894   2.975  0.2867 -0.3366  0.1603
 4106SOL    HW113768   5.937   3.864   2.884 -2.7659 -1.7960  0.6098
 4106SOL    HW213769   5.946   3.989   2.969 -1.5838 -0.2544 -1.6773
 4107SOL     OW13770   6.448   1.424   1.016 -0.2680 -0.2175  0.7139
 4107SOL    HW113771   6.493   1.479   1.080 -1.2348  0.8726  0.5017
 4107SOL    HW213772   6.517   1.396   0.955  0.3631  0.1854  1.2288
 4108SOL     OW13773   3.300   1.855   2.675  0.0571  0.4219  0.0179
 4108SOL    HW113774   3.338   1.942   2.664 -0.1079  0.6295  0.9656
 4108SOL    HW213775   3.357   1.797   2.625  0.5703  0.9819 -0.0554
 4109SOL     OW13776   0.315   2.276   2.920  0.4903 -0.2543 -0.3810
 4109SOL    HW113777   0.320   2.345   2.987  1.6229 -0.7601  0.0752
 4109SOL    HW213778   0.288   2.198   2.968 -2.8105  0.2157 -1.2014
 4110SOL     OW13779   3.789   3.924   1.579 -0.1408  0.1278 -0.4286
 4110SOL    HW113780   3.802   3.898   1.488 -2.4397  0.1224 -0.8024
 4110SOL    HW213781   3.742   3.852   1.620  0.9452  0.0828  0.8288
 4111SOL     OW13782   4.830   1.928   2.084  0.2981  0.3968  0.8838
 4111SOL    HW113783   4.835   1.898   1.993  0.5666 -0.9586  1.3240
 4111SOL    HW213784   4.914   1.972   2.099  1.0443 -1.0176  1.0125
 4112SOL     OW13785   2.082   6.555   0.744 -0.1303 -0.2197  0.2732
 4112SOL    HW113786   2.148   6.536   0.677  0.0870  0.3095  0.3279
 4112SOL    HW213787   2.133   6.572   0.824 -0.2193  1.7171 -0.0412
 4113SOL     OW13788   4.378   1.926   3.749 -0.0574  0.2832  0.0486
 4113SOL    HW113789   4.426   1.853   3.710 -0.5435 -0.5581  0.9890
 4113SOL    HW213790   4.444   1.974   3.798  0.3774  0.8257 -1.0339
 4114SOL     OW13791   5.768   2.939   0.558 -0.4045 -0.0215  0.0237
 4114SOL    HW113792   5.799   2.849   0.562 -1.6807 -0.4313  1.6524
 4114SOL    HW213793   5.826   2.987   0.618  0.1304  0.2159 -0.6686
 4115SOL     OW13794   5.323   4.947   2.199 -0.0096  0.2216  0.4097
 4115SOL    HW113795   5.300   5.028   2.153 -1.5199  0.8178  2.0881
 4115SOL    HW213796   5.330   4.973   2.291 -0.7720 -1.5778  1.0266
 4116SOL     OW13797   1.305   5.487   0.399  0.2357  0.7073 -0.0567
 4116SOL    HW113798   1.287   5.549   0.470 -0.8212  0.2776  0.0752
 4116SOL    HW213799   1.220   5.473   0.358  0.1862 -1.5991  0.6919
 4117SOL     OW13800   4.530   5.894   5.837 -0.3260 -0.3595  0.3901
 4117SOL    HW113801   4.548   5.883   5.930  1.0290  1.2253  0.3559
 4117SOL    HW213802   4.435   5.908   5.833 -0.2083  1.0927  1.7204
 4118SOL     OW13803   6.087   4.862   0.291  0.1118 -0.0355 -0.2252
 4118SOL    HW113804   6.078   4.946   0.246 -0.5268  2.0495  3.3491
 4118SOL    HW213805   6.006   4.815   0.273 -0.0710  0.6617 -1.2694
 4119SOL     OW13806   3.481   4.209   5.367  0.4882 -0.4553  0.3008
 4119SOL    HW113807   3.531   4.154   5.427 -0.4914 -0.5945  1.0256
 4119SOL    HW213808   3.391   4.206   5.401  0.2587  0.9663 -0.0820
 4120SOL     OW13809   0.428   3.718   5.464  0.2296  0.7234  0.4216
 4120SOL    HW113810   0.356   3.740   5.522  0.0732  1.2811  0.0190
 4120SOL    HW213811   0.386   3.681   5.387  0.4676 -0.6289  0.9158
 4121SOL     OW13812   0.316   5.776   6.070  0.2233 -0.9408  0.3250
 4121SOL    HW113813   0.262   5.719   6.015 -2.2440  0.9374  0.6209
 4121SOL    HW213814   0.322   5.858   6.022  0.9254 -0.3686  1.3501
 4122SOL     OW13815   4.970   6.057   2.011 -0.3346 -0.3890 -0.0594
 4122SOL    HW113816   4.878   6.056   2.036 -0.0064  0.7473  1.3212
 4122SOL    HW213817   5.012   5.991   2.066 -0.1376 -0.0861  0.1606
 4123SOL     OW13818   5.872   3.107   5.889  0.4612 -0.3310 -0.3988
 4123SOL    HW113819   5.824   3.185   5.860 -1.3011 -1.7415 -1.5269
 4123SOL    HW213820   5.961   3.121   5.859 -0.3004  0.3458 -2.5405
 4124SOL     OW13821   6.238   2.700   1.279 -0.7739  0.1651  0.1196
 4124SOL    HW113822   6.200   2.625   1.233  0.7740 -0.7566  0.2575
 4124SOL    HW213823   6.199   2.777   1.237 -0.4797 -0.6721 -1.7691
 4125SOL     OW13824   5.238   0.525   5.877 -0.1508  0.1147  0.0887
 4125SOL    HW113825   5.330   0.542   5.899  0.2762 -1.3016 -0.5181
 4125SOL    HW213826   5.236   0.529   5.781 -1.0186  1.4694  0.1348
 4126SOL     OW13827   4.829   4.360   6.821  0.3311 -0.7385 -0.0950
 4126SOL    HW113828   4.910   4.310   6.824  0.6007 -0.3140 -0.3251
 4126SOL    HW213829   4.796   4.349   6.732 -0.4212 -1.7838  0.2923
 4127SOL     OW13830   4.670   3.087   1.011 -0.8788 -0.1049 -0.3745
 4127SOL    HW113831   4.656   3.131   0.927 -0.2500  0.0693 -0.3999
 4127SOL    HW213832   4.715   3.153   1.065  1.6424 -1.1915 -0.9752
 4128SOL     OW13833   2.134   5.485   4.336 -0.4205 -0.7126  0.4637
 4128SOL    HW113834   2.219   5.473   4.379 -0.5767 -0.9685  0.7083
 4128SOL    HW213835   2.080   5.530   4.401 -0.5359 -0.7423  0.3900
 4129SOL     OW13836   2.471   2.361   2.936  0.1049 -0.1591 -0.6066
 4129SOL    HW113837   2.560   2.397   2.941  0.3436 -0.5957 -1.4859
 4129SOL    HW213838   2.433   2.379   3.022  1.1944 -0.3452 -0.0609
 4130SOL     OW13839   0.880   3.476   5.585  0.2305 -0.6567 -0.6841
 4130SOL    HW113840   0.843   3.393   5.615 -1.2683  0.1197 -0.2738
 4130SOL    HW213841   0.806   3.536   5.585  1.4428  0.8865 -0.2369
 4131SOL     OW13842   1.472   1.149   3.477 -0.1453  0.0576 -0.5588
 4131SOL    HW113843   1.385   1.160   3.516  1.3526  2.9808  2.4903
 4131SOL    HW213844   1.469   1.201   3.397 -1.2531 -0.0473 -0.6078
 4132SOL     OW13845   6.562   5.288   3.656 -0.3323  0.4480 -0.9818
 4132SOL    HW113846   6.614   5.218   3.615 -0.0956  1.0193 -1.6686
 4132SOL    HW213847   6.561   5.358   3.591 -0.0954  1.3118 -0.0767
 4133SOL     OW13848   4.501   2.089   1.069 -0.3747  0.0225  0.1721
 4133SOL    HW113849   4.535   2.173   1.100 -0.0706 -0.1245  0.2431
 4133SOL    HW213850   4.408   2.091   1.092 -0.0892 -0.2281  1.4181
 4134SOL     OW13851   3.411   4.005   0.523  0.1282  0.0628 -0.1060
 4134SOL    HW113852   3.491   4.048   0.493  1.0825 -1.6176 -0.1052
 4134SOL    HW213853   3.411   3.920   0.478 -2.0193  0.2894 -0.6162
 4135SOL     OW13854   6.903   6.056   0.987  0.1434  0.0226  0.2844
 4135SOL    HW113855   6.836   6.123   1.000 -0.1069 -0.3051  0.7555
 4135SOL    HW213856   6.982   6.105   0.966  0.0668  0.5009  1.0402
 4136SOL     OW13857   4.723   3.769   3.960  0.1448  0.7847 -0.3078
 4136SOL    HW113858   4.708   3.723   3.878 -3.1647  1.7491 -0.4070
 4136SOL    HW213859   4.767   3.850   3.935 -0.7972  1.0483 -1.1503
 4137SOL     OW13860   5.211   6.350   0.162  0.2938 -0.1783 -0.7025
 4137SOL    HW113861   5.210   6.423   0.099 -1.2863  0.0169 -0.4975
 4137SOL    HW213862   5.127   6.307   0.149  0.6021 -1.0833  0.2141
 4138SOL     OW13863   2.910   5.474   4.771  0.0016  0.2932 -0.0346
 4138SOL    HW113864   2.966   5.478   4.694  0.1060 -0.6159 -0.0176
 4138SOL    HW213865   2.883   5.382   4.777 -1.3175  0.6678  0.0888
 4139SOL     OW13866   5.974   6.620   2.395  0.0978  0.0168 -0.2711
 4139SOL    HW113867   5.979   6.652   2.485 -1.8508  1.7575 -0.7217
 4139SOL    HW213868   5.940   6.531   2.403  2.5953 -0.9375  0.8145
 4140SOL     OW13869   4.491   1.170   5.120  0.2142 -0.0332 -0.5623
 4140SOL    HW113870   4.533   1.132   5.198 -1.4379 -0.9462 -0.0671
 4140SOL    HW213871   4.452   1.251   5.152 -1.0163 -0.7207 -0.2247
 4141SOL     OW13872   4.324   3.029   0.423  0.4317  0.3959  0.1133
 4141SOL    HW113873   4.230   3.016   0.413  0.4817  0.1614 -0.0538
 4141SOL    HW213874   4.344   3.102   0.365  0.2802  0.7351  0.4803
 4142SOL     OW13875   1.294   2.236   5.797 -0.1797 -0.0279 -0.0519
 4142SOL    HW113876   1.368   2.295   5.810  1.5763 -2.1841  0.4960
 4142SOL    HW213877   1.242   2.277   5.728  1.8610  1.3067 -0.9101
 4143SOL     OW13878   0.242   2.946   6.918  0.6690 -0.0455 -0.1680
 4143SOL    HW113879   0.229   2.980   6.829 -1.3304 -1.0242 -0.3152
 4143SOL    HW213880   0.301   3.008   6.960 -0.0044  1.5788 -1.5416
 4144SOL     OW13881   5.653   1.827   1.559 -0.3024 -0.2109 -0.1316
 4144SOL    HW113882   5.664   1.910   1.512 -0.3861 -0.8629 -1.3334
 4144SOL    HW213883   5.724   1.772   1.527 -0.3371 -0.6669  0.5497
 4145SOL     OW13884   3.178   6.176   4.111 -0.1898  0.2761 -0.2265
 4145SOL    HW113885   3.217   6.238   4.173  1.9810 -1.1575 -0.0630
 4145SOL    HW213886   3.114   6.127   4.162  0.9315 -0.2784  0.6877
 4146SOL     OW13887   3.336   1.140   2.330  0.1194 -0.6385 -0.0386
 4146SOL    HW113888   3.247   1.122   2.362  0.0989  0.0733  0.3358
 4146SOL    HW213889   3.381   1.056   2.333 -0.1228 -0.7363  1.1341
 4147SOL     OW13890   5.603   0.007   6.143 -0.7088 -0.4627 -0.4569
 4147SOL    HW113891   5.616  -0.074   6.095  1.8261  0.5214 -1.6181
 4147SOL    HW213892   5.648  -0.007   6.227  3.1543  0.8411 -2.0898
 4148SOL     OW13893   5.049   2.168   3.409 -0.6466 -0.5577  0.1424
 4148SOL    HW113894   5.100   2.248   3.394 -2.3560  0.4999 -0.2771
 4148SOL    HW213895   4.997   2.187   3.486  1.3117 -2.5673  2.1267
 4149SOL     OW13896   4.870   5.650   1.758 -0.2995 -0.2267  0.1384
 4149SOL    HW113897   4.857   5.594   1.835 -3.4002  1.5235  1.0392
 4149SOL    HW213898   4.926   5.721   1.789 -2.9092  1.4130  1.4589
 4150SOL     OW13899   3.616   1.386   6.076 -0.0490  0.5270 -0.0707
 4150SOL    HW113900   3.690   1.448   6.075 -1.0030  1.6934 -0.6948
 4150SOL    HW213901   3.657   1.300   6.070  1.3040  1.1068  0.4398
 4151SOL     OW13902   1.684   1.083   6.428  0.1038 -0.0733 -0.2761
 4151SOL    HW113903   1.647   1.105   6.343 -2.2639 -1.2590  0.3735
 4151SOL    HW213904   1.630   1.130   6.492  1.3057  0.1275  0.6363
 4152SOL     OW13905   1.220   1.696   7.073  0.2339 -0.2334  0.2011
 4152SOL    HW113906   1.215   1.694   6.977 -1.8847  0.5436  0.2452
 4152SOL    HW213907   1.218   1.604   7.099  2.8336 -0.5702 -0.5029
 4153SOL     OW13908   4.790   0.212   6.465  0.1080 -0.2297  0.1995
 4153SOL    HW113909   4.694   0.205   6.462 -0.0140  0.5127  1.4140
 4153SOL    HW213910   4.811   0.204   6.558  1.2459 -0.5163 -0.0755
 4154SOL     OW13911   3.240   4.757   3.400  0.1119 -0.4787 -0.0169
 4154SOL    HW113912   3.272   4.838   3.362 -0.2173 -0.0054  0.6960
 4154SOL    HW213913   3.294   4.688   3.360  1.1415  0.1845  0.2104
 4155SOL     OW13914   2.208   5.919   5.723 -0.1771 -0.0726  0.0039
 4155SOL    HW113915   2.227   5.832   5.688  1.2631 -0.3438  1.3537
 4155SOL    HW213916   2.270   5.977   5.677  0.1718 -0.0705  0.4758
 4156SOL     OW13917   6.878   1.748   5.464  0.0226 -0.3414  0.0110
 4156SOL    HW113918   6.846   1.698   5.389  0.7889 -0.4663 -0.2391
 4156SOL    HW213919   6.918   1.683   5.521 -2.5401 -0.6021  1.6597
 4157SOL     OW13920   2.689   1.766   0.564 -0.0444 -0.2212 -0.0756
 4157SOL    HW113921   2.644   1.683   0.551 -2.6634  0.9934  0.5050
 4157SOL    HW213922   2.659   1.796   0.650 -0.7722  2.2115 -1.0878
 4158SOL     OW13923   0.259   7.130   0.210  0.1038  0.0333 -0.4011
 4158SOL    HW113924   0.324   7.190   0.174  0.7640  0.4261  1.3125
 4158SOL    HW213925   0.211   7.184   0.274 -0.0952 -0.9510  0.2975
 4159SOL     OW13926   2.123   1.062   0.609 -0.2365 -0.4341  0.0666
 4159SOL    HW113927   2.194   1.109   0.566  1.5422 -1.5409  1.6210
 4159SOL    HW213928   2.057   1.129   0.628  1.6463  1.2373  1.1003
 4160SOL     OW13929   1.487   2.657   5.621  0.3932  0.4401 -0.1829
 4160SOL    HW113930   1.424   2.726   5.642 -0.1052 -0.1192  0.1815
 4160SOL    HW213931   1.503   2.666   5.527 -2.7677 -1.4886 -1.0273
 4161SOL     OW13932   0.168   1.128   4.560 -0.1578  0.0839  0.1790
 4161SOL    HW113933   0.260   1.112   4.581 -0.0923 -0.7065 -0.6702
 4161SOL    HW213934   0.120   1.064   4.613 -0.4942  2.4412  2.9934
 4162SOL     OW13935   5.975   5.887   0.235 -0.0946 -0.1436 -0.7431
 4162SOL    HW113936   6.034   5.812   0.232 -1.6316 -1.4106 -0.3804
 4162SOL    HW213937   5.888   5.851   0.218 -0.8556  1.5973 -0.8111
 4163SOL     OW13938   5.988   5.365   1.147 -0.1116  0.0348  0.5099
 4163SOL    HW113939   5.897   5.375   1.119  0.5934  0.6980 -1.7981
 4163SOL    HW213940   5.990   5.400   1.236 -2.1839 -0.3946  0.7684
 4164SOL     OW13941   2.788   4.533   5.107  0.2626 -0.0289 -0.3165
 4164SOL    HW113942   2.726   4.601   5.080 -0.2564  0.2031  1.3500
 4164SOL    HW213943   2.733   4.464   5.144  0.9230 -0.3281  0.1284
 4165SOL     OW13944   6.750   1.457   2.728  0.3912 -0.2883 -1.0042
 4165SOL    HW113945   6.834   1.439   2.771  0.9459 -0.1065 -1.9686
 4165SOL    HW213946   6.699   1.378   2.741  0.1917  0.0708  0.7292
 4166SOL     OW13947   5.976   6.688   2.950 -0.2340  0.0232 -0.2569
 4166SOL    HW113948   6.032   6.765   2.964  1.1309 -1.0119  0.2459
 4166SOL    HW213949   6.000   6.629   3.021 -2.4061 -0.2581  0.3135
 4167SOL     OW13950   2.388   3.349   6.308 -0.1635  0.1096 -0.2525
 4167SOL    HW113951   2.405   3.302   6.226 -1.1191  0.7702 -0.8529
 4167SOL    HW213952   2.387   3.442   6.282 -0.8118  0.3047  0.4426
 4168SOL     OW13953   3.992   3.095   6.098 -0.1415  0.3648 -0.6514
 4168SOL    HW113954   4.047   3.167   6.130  0.1124  0.3832 -1.1219
 4168SOL    HW213955   4.054   3.024   6.082 -0.6666 -0.9856  2.5218
 4169SOL     OW13956   6.137   6.074   2.698  0.1011 -0.4810 -0.0189
 4169SOL    HW113957   6.183   5.990   2.695  0.7623 -0.1502  0.4710
 4169SOL    HW213958   6.140   6.100   2.790 -0.0247  0.1160 -0.1762
 4170SOL     OW13959   6.992   0.981   2.530 -0.5765  0.6329  0.0751
 4170SOL    HW113960   7.023   1.041   2.598  1.1919  0.6074 -0.6316
 4170SOL    HW213961   7.008   1.028   2.448  0.2031 -0.4960 -0.4535
 4171SOL     OW13962   3.977   4.467   3.881 -0.0523  0.1523 -0.2836
 4171SOL    HW113963   3.955   4.485   3.973 -1.9531  1.2619 -0.9126
 4171SOL    HW213964   3.948   4.377   3.866  0.8841 -0.2767  0.3468
 4172SOL     OW13965   0.545   6.145   1.810 -0.1156  0.1592  0.1700
 4172SOL    HW113966   0.465   6.196   1.819 -0.6040 -0.1184 -1.9663
 4172SOL    HW213967   0.587   6.150   1.895 -1.1080  2.4959  0.5960
 4173SOL     OW13968   5.492   1.180   2.676  0.1121 -0.3971 -0.4228
 4173SOL    HW113969   5.449   1.203   2.759 -1.1831 -1.7607 -0.6774
 4173SOL    HW213970   5.496   1.085   2.677  2.6174 -0.3593 -0.7180
 4174SOL     OW13971   5.060   3.016   5.685  0.1303  0.1184 -0.2148
 4174SOL    HW113972   5.011   2.963   5.747  1.6762 -0.7582  0.3130
 4174SOL    HW213973   5.150   3.012   5.716  0.2848  3.5499  0.1843
 4175SOL     OW13974   3.019   5.761   7.090 -0.0788 -0.5711 -0.1061
 4175SOL    HW113975   2.990   5.721   7.008 -0.5037 -1.8109  0.6111
 4175SOL    HW213976   3.000   5.694   7.156  0.1015  0.4674  1.0216
 4176SOL     OW13977   1.295   5.849   6.913 -0.1407 -0.3249 -0.0536
 4176SOL    HW113978   1.224   5.888   6.965  0.0524  1.4745 -1.0589
 4176SOL    HW213979   1.302   5.760   6.946 -1.4613  0.0943  1.5188
 4177SOL     OW13980   3.857   6.603   3.549 -0.2982  0.8192 -0.4389
 4177SOL    HW113981   3.797   6.561   3.487  0.6661  0.8707 -1.4334
 4177SOL    HW213982   3.817   6.588   3.634  0.0210 -2.2152 -0.7028
 4178SOL     OW13983   5.372   6.608   1.995  0.0180  0.4946 -0.0064
 4178SOL    HW113984   5.350   6.530   2.045  0.2679  0.4826  0.0870
 4178SOL    HW213985   5.467   6.605   1.986 -0.1484 -0.3872 -1.9424
 4179SOL     OW13986   0.027   0.634   3.699 -0.6453 -0.0732 -0.1838
 4179SOL    HW113987   0.089   0.646   3.627 -1.0009  1.8430 -0.2084
 4179SOL    HW213988   0.083   0.614   3.775 -0.0661  0.6662 -0.4042
 4180SOL     OW13989   2.126   5.268   1.500  0.3327 -0.0225  0.5840
 4180SOL    HW113990   2.056   5.215   1.540  0.0927 -0.0402  0.1510
 4180SOL    HW213991   2.128   5.238   1.409 -0.0964  1.0168  0.2238
 4181SOL     OW13992   2.084   0.431   1.724  0.3488  0.3574  0.4354
 4181SOL    HW113993   2.071   0.506   1.783 -0.9374  1.5269 -1.2201
 4181SOL    HW213994   2.174   0.405   1.738  0.9447  2.4377  0.8569
 4182SOL     OW13995   7.100   2.338   1.628  0.7318 -0.6182  0.6503
 4182SOL    HW113996   7.191   2.348   1.658  0.0982 -0.3689  2.6529
 4182SOL    HW213997   7.047   2.361   1.704 -1.0181 -2.4354  0.0665
 4183SOL     OW13998   5.871   3.246   5.155  0.0580  0.1049 -0.2047
 4183SOL    HW113999   5.869   3.220   5.247  0.8810 -1.7699 -0.6578
 4183SOL    HW214000   5.896   3.338   5.156 -0.3670  0.2311  1.4511
 4184SOL     OW14001   6.454   3.436   5.798  0.1473  0.4428 -0.1411
 4184SOL    HW114002   6.428   3.376   5.869  0.3811 -0.8469 -1.1041
 4184SOL    HW214003   6.529   3.484   5.834 -2.1727  2.7655  1.9270
 4185SOL     OW14004   6.551   4.023   6.890 -0.3838  0.2709  0.5809
 4185SOL    HW114005   6.481   4.027   6.825 -1.1991 -1.3627  1.3067
 4185SOL    HW214006   6.518   3.963   6.958  0.9968  0.8525  1.8209
 4186SOL     OW14007   2.059   0.253   0.862 -0.5234  0.2445 -0.1666
 4186SOL    HW114008   1.979   0.304   0.850 -0.8064 -0.1632 -0.0266
 4186SOL    HW214009   2.112   0.306   0.922 -0.6716  0.5346 -0.2899
 4187SOL     OW14010   0.045   5.451   2.965 -0.0640  0.4931 -0.3543
 4187SOL    HW114011   0.074   5.447   3.056  0.4778  0.5043 -0.5216
 4187SOL    HW214012   0.085   5.531   2.931 -0.3892  0.5703 -0.5616
 4188SOL     OW14013   1.013   6.033   1.477 -0.5302 -0.8832  0.4360
 4188SOL    HW114014   0.963   6.043   1.558  1.4621  3.6398  1.4380
 4188SOL    HW214015   0.978   6.101   1.419  1.9217 -0.0050 -0.1434
 4189SOL     OW14016   6.145   3.776   4.928 -0.3259 -0.0485 -0.0259
 4189SOL    HW114017   6.200   3.703   4.956 -0.0855 -0.2513 -0.9748
 4189SOL    HW214018   6.077   3.782   4.995 -0.7968 -1.6441 -0.2985
 4190SOL     OW14019   4.692   2.526   4.897 -1.0028 -0.1362 -0.1869
 4190SOL    HW114020   4.601   2.509   4.921 -0.6137 -1.0837  0.7356
 4190SOL    HW214021   4.696   2.620   4.883 -2.3157 -0.2053 -1.1322
 4191SOL     OW14022   6.016   3.755   3.203  0.3146  1.0002  0.2798
 4191SOL    HW114023   5.979   3.822   3.145 -0.0130  1.3064  0.8306
 4191SOL    HW214024   6.109   3.775   3.207  0.4336  0.6614 -0.5479
 4192SOL     OW14025   3.461   1.434   1.621  0.0553  0.4508 -0.1729
 4192SOL    HW114026   3.415   1.485   1.689  1.0107  1.0749  0.0178
 4192SOL    HW214027   3.466   1.494   1.546 -2.3283 -0.7282 -1.3891
 4193SOL     OW14028   4.173   5.043   0.773  0.4543  0.3052 -0.0533
 4193SOL    HW114029   4.090   5.068   0.732  0.6773  2.3481  0.6141
 4193SOL    HW214030   4.191   5.113   0.836  1.2400 -1.5920  1.9580
 4194SOL     OW14031   2.271   0.870   0.318  0.3693  0.0367  0.1985
 4194SOL    HW114032   2.291   0.824   0.236 -0.0303 -0.6858  0.5015
 4194SOL    HW214033   2.304   0.959   0.303 -0.0528  0.0308 -0.8951
 4195SOL     OW14034   6.720   6.824   5.011 -0.7419 -0.1209  0.2127
 4195SOL    HW114035   6.684   6.776   4.936  0.7009  0.3378 -0.8170
 4195SOL    HW214036   6.758   6.903   4.973  0.0434  0.1175  1.4329
 4196SOL     OW14037   1.192   3.336   6.152 -0.1168 -0.2101 -0.3461
 4196SOL    HW114038   1.227   3.256   6.192  1.7980  0.1530 -1.1886
 4196SOL    HW214039   1.256   3.360   6.086 -1.2140  1.4302 -0.8881
 4197SOL     OW14040   3.287   6.968   3.594 -0.0827 -0.0840 -0.2147
 4197SOL    HW114041   3.312   6.956   3.502 -2.5683 -2.1159 -0.7493
 4197SOL    HW214042   3.255   6.882   3.621  0.0013  0.6363  2.3983
 4198SOL     OW14043   2.016   0.343   3.173  0.1006 -0.9026  0.1651
 4198SOL    HW114044   2.018   0.310   3.263  0.8268 -1.2971  0.0079
 4198SOL    HW214045   1.957   0.419   3.177  1.8064  0.4327  1.4233
 4199SOL     OW14046   2.466   2.431   0.028 -0.1716  0.2551 -0.0897
 4199SOL    HW114047   2.508   2.384  -0.044 -0.8107  0.1880 -0.4179
 4199SOL    HW214048   2.535   2.490   0.060  0.6322 -0.8843  0.3299
 4200SOL     OW14049   6.348   0.031   0.607  0.1645  0.0488  0.1034
 4200SOL    HW114050   6.277   0.035   0.671 -0.2473 -1.3065 -0.2255
 4200SOL    HW214051   6.314  -0.027   0.539  0.6530  1.3579 -1.2818
 4201SOL     OW14052   4.826   2.154   5.802 -0.0845 -0.1293 -0.3315
 4201SOL    HW114053   4.854   2.118   5.886 -3.3307  1.2512  1.5508
 4201SOL    HW214054   4.880   2.232   5.790  0.6234 -0.5125  0.3261
 4202SOL     OW14055   3.263   2.177   4.130 -0.3435 -0.2940  0.3754
 4202SOL    HW114056   3.344   2.125   4.128 -0.6155 -0.7145 -0.8828
 4202SOL    HW214057   3.199   2.120   4.173  0.0711  0.1434  1.6225
 4203SOL     OW14058   1.513   4.882   3.614 -0.4367 -0.6757  0.5812
 4203SOL    HW114059   1.600   4.844   3.615  0.7253  1.7818  0.3500
 4203SOL    HW214060   1.495   4.904   3.705 -1.0585 -1.6128  0.7003
 4204SOL     OW14061   1.573   6.199   0.292  0.2008 -0.2227 -0.3142
 4204SOL    HW114062   1.524   6.280   0.274 -0.2937 -0.4616 -0.0546
 4204SOL    HW214063   1.583   6.157   0.206  0.4732  0.1134 -0.4532
 4205SOL     OW14064   3.561   4.623   2.085 -0.6768  0.0177 -0.2003
 4205SOL    HW114065   3.626   4.553   2.094 -0.7288  0.0432  0.3678
 4205SOL    HW214066   3.556   4.663   2.171 -2.3679 -0.7959  0.1139
 4206SOL     OW14067   0.603   6.694   3.180 -0.6895 -0.5129  1.0371
 4206SOL    HW114068   0.604   6.688   3.085 -0.5642 -1.3345  1.0829
 4206SOL    HW214069   0.664   6.765   3.201 -0.2635 -0.7264  0.5281
 4207SOL     OW14070   0.733   5.259   0.021 -0.5455 -0.6022  0.6631
 4207SOL    HW114071   0.650   5.280   0.063 -1.1296 -2.1716  0.3338
 4207SOL    HW214072   0.736   5.315  -0.057 -1.4836 -0.8322  0.4557
 4208SOL     OW14073   1.440   2.283   4.160  0.5170 -0.3124  0.1583
 4208SOL    HW114074   1.486   2.286   4.244  0.3770 -1.1136  0.2788
 4208SOL    HW214075   1.348   2.281   4.183  0.4823 -0.7206  0.0012
 4209SOL     OW14076   6.846   0.417   2.288 -0.2473  0.5979 -0.4211
 4209SOL    HW114077   6.845   0.354   2.360  1.2616  0.6371 -0.3519
 4209SOL    HW214078   6.848   0.362   2.209  3.0537  0.4282 -0.3586
 4210SOL     OW14079   5.717   5.763   0.187  0.0633 -0.2366 -0.7820
 4210SOL    HW114080   5.637   5.794   0.231  0.6110  0.4192 -0.2233
 4210SOL    HW214081   5.690   5.682   0.144 -0.6347 -0.6268  0.3157
 4211SOL     OW14082   6.277   1.348   6.011  0.1499 -0.0252 -0.1366
 4211SOL    HW114083   6.207   1.394   6.058  0.8919  2.2738 -1.0839
 4211SOL    HW214084   6.236   1.321   5.928 -1.0778 -3.8241  1.4966
 4212SOL     OW14085   7.036   6.495   2.479  0.0992  0.6139 -0.2671
 4212SOL    HW114086   6.986   6.534   2.407 -0.8310  0.8473  0.4805
 4212SOL    HW214087   7.066   6.411   2.444  0.7316  1.2588 -1.3406
 4213SOL     OW14088   3.661   5.478   6.709 -0.6392 -0.2716  0.4782
 4213SOL    HW114089   3.580   5.495   6.660 -0.4533  0.6403  0.4854
 4213SOL    HW214090   3.729   5.523   6.659 -0.4875  0.9243  1.7181
 4214SOL     OW14091   6.084   1.067   5.935  0.2293 -0.6388  0.0446
 4214SOL    HW114092   6.048   1.124   5.867 -0.8574 -2.7385 -1.2324
 4214SOL    HW214093   6.112   0.988   5.889  0.8996 -1.5241  1.8515
 4215SOL     OW14094   1.820   5.688   6.212  0.3857 -0.3946  0.1546
 4215SOL    HW114095   1.895   5.704   6.269  1.0921 -2.7746  0.0146
 4215SOL    HW214096   1.836   5.601   6.175 -3.3312 -1.8679  1.5371
 4216SOL     OW14097   5.252   4.576   0.802  0.1070 -0.2177  0.4616
 4216SOL    HW114098   5.337   4.597   0.763  0.4449 -0.6335  0.9491
 4216SOL    HW214099   5.204   4.532   0.733  0.8091 -1.2173  0.5823
 4217SOL     OW14100   2.778   0.614   1.305  0.1704  0.0378 -0.3777
 4217SOL    HW114101   2.856   0.608   1.359  0.0852 -0.3193 -0.2967
 4217SOL    HW214102   2.705   0.610   1.367  0.0660 -0.6767 -0.5398
 4218SOL     OW14103   3.398   5.656   2.775  0.4582 -0.6949  0.5148
 4218SOL    HW114104   3.320   5.616   2.812 -0.4322 -0.8552 -1.3796
 4218SOL    HW214105   3.382   5.750   2.782 -0.2385 -0.7245 -0.4364
 4219SOL     OW14106   2.249   1.671   3.138 -0.4625 -0.4928 -0.9294
 4219SOL    HW114107   2.277   1.747   3.087 -0.4210 -0.3495 -0.6947
 4219SOL    HW214108   2.326   1.646   3.189 -0.1060 -1.4265 -1.8857
 4220SOL     OW14109   0.611   5.467   5.382 -0.0083 -0.2972 -0.0890
 4220SOL    HW114110   0.644   5.447   5.295  1.9243 -1.4268  0.8348
 4220SOL    HW214111   0.530   5.417   5.389 -0.7833  0.6670 -1.5790
 4221SOL     OW14112   2.124   3.343   4.539 -0.1683  0.4839 -0.4529
 4221SOL    HW114113   2.175   3.329   4.619  1.3077 -0.0473 -1.4522
 4221SOL    HW214114   2.120   3.257   4.498 -0.3873  0.8725 -1.2573
 4222SOL     OW14115   1.901   3.551   1.989 -0.3851 -0.2801  0.4122
 4222SOL    HW114116   1.983   3.512   2.021 -0.7304  0.2851  2.0153
 4222SOL    HW214117   1.832   3.505   2.036 -0.9683 -0.0404 -0.1859
 4223SOL     OW14118   5.911   2.414   1.482 -0.0041 -0.5223  0.6066
 4223SOL    HW114119   5.935   2.399   1.574  1.2267 -0.6351  0.2829
 4223SOL    HW214120   5.843   2.350   1.464  1.3151 -2.0556  0.8203
 4224SOL     OW14121   6.416   5.452   1.861 -0.2151 -0.0989  0.1545
 4224SOL    HW114122   6.368   5.477   1.782 -1.6702 -0.7651  0.7920
 4224SOL    HW214123   6.348   5.438   1.927  0.7480 -2.1297  0.8014
 4225SOL     OW14124   4.957   0.476   5.631  0.1396 -0.1262 -0.0956
 4225SOL    HW114125   4.970   0.571   5.624  2.1985 -0.2376  1.3763
 4225SOL    HW214126   4.995   0.441   5.550 -0.0269  0.2449 -0.3411
 4226SOL     OW14127   0.333   4.199   3.125  0.0176 -0.5057 -0.4761
 4226SOL    HW114128   0.293   4.112   3.131  0.2291 -0.5198  1.0742
 4226SOL    HW214129   0.377   4.199   3.040  0.9210 -2.3294 -0.0571
 4227SOL     OW14130   1.036   6.944   2.835  0.1154  0.2777 -0.9221
 4227SOL    HW114131   0.957   6.967   2.786  0.3080  0.7422 -1.0220
 4227SOL    HW214132   1.103   7.005   2.803 -0.2361  1.9635  1.3524
 4228SOL     OW14133   2.221   4.970   3.152 -0.0198 -0.0026 -0.6659
 4228SOL    HW114134   2.219   4.923   3.236  0.3797 -0.5569 -0.9554
 4228SOL    HW214135   2.301   4.939   3.109 -0.1323  0.4008 -1.1814
 4229SOL     OW14136   4.447   5.192   4.492 -0.1911 -0.3271  0.3175
 4229SOL    HW114137   4.393   5.217   4.417  0.8685 -0.3193 -0.4542
 4229SOL    HW214138   4.496   5.116   4.462 -1.2841 -1.6397  1.7131
 4230SOL     OW14139   1.245   0.680   1.558  0.1639 -0.4451 -0.0149
 4230SOL    HW114140   1.201   0.698   1.474  1.0498  0.9241 -0.2189
 4230SOL    HW214141   1.302   0.605   1.540 -0.4952 -0.8843 -0.3203
 4231SOL     OW14142   0.215   4.346   1.475  0.0600 -0.5622 -0.6586
 4231SOL    HW114143   0.145   4.300   1.429 -0.9389  1.0912 -0.8771
 4231SOL    HW214144   0.264   4.277   1.520 -1.1061 -1.8496 -1.3008
 4232SOL     OW14145   1.487   0.476   6.652 -0.1993 -0.3237 -0.2988
 4232SOL    HW114146   1.484   0.398   6.708 -1.1458 -0.1954 -0.1543
 4232SOL    HW214147   1.493   0.442   6.563 -2.5536 -0.6445 -0.3916
 4233SOL     OW14148   2.448   2.279   4.517 -0.5185 -0.1802 -0.4486
 4233SOL    HW114149   2.534   2.239   4.533 -0.4606 -0.1137 -0.5866
 4233SOL    HW214150   2.397   2.259   4.595 -0.4288 -0.3609 -0.4349
 4234SOL     OW14151   1.672   4.549   6.253  0.1009 -0.4976 -0.5797
 4234SOL    HW114152   1.597   4.490   6.244 -1.1294  0.4166  2.2575
 4234SOL    HW214153   1.687   4.583   6.165 -1.7450 -1.9745 -1.5398
 4235SOL     OW14154   3.257   0.186   1.601  0.2009  0.1448 -0.1792
 4235SOL    HW114155   3.298   0.272   1.602 -0.7383  0.6103 -0.2606
 4235SOL    HW214156   3.208   0.181   1.683 -2.1477  0.9183 -1.4402
 4236SOL     OW14157   0.280   6.735   5.483 -0.1034 -0.5138  0.4662
 4236SOL    HW114158   0.211   6.707   5.423  0.1481 -2.6333  1.0554
 4236SOL    HW214159   0.316   6.653   5.517  1.6495  0.5675  1.3739
 4237SOL     OW14160   2.102   6.128   5.324 -0.6458 -0.5079  0.5527
 4237SOL    HW114161   2.101   6.153   5.416 -2.0149  1.6745  0.0238
 4237SOL    HW214162   2.011   6.137   5.296 -0.1846 -0.7288 -1.1200
 4238SOL     OW14163   6.488   5.609   3.203 -0.3022  0.1340 -0.6010
 4238SOL    HW114164   6.442   5.584   3.123 -0.9112  0.7134 -0.4416
 4238SOL    HW214165   6.487   5.704   3.203  1.6407  0.1950 -1.0077
 4239SOL     OW14166   3.345   6.869   3.020  0.3773 -0.5092  0.1823
 4239SOL    HW114167   3.276   6.931   2.997 -0.7595 -2.1597 -1.1223
 4239SOL    HW214168   3.424   6.902   2.976  0.3441  1.1466  1.3127
 4240SOL     OW14169   1.842   1.302   3.833  0.4411  0.2782 -0.5258
 4240SOL    HW114170   1.803   1.388   3.847  2.8528  1.1439  1.3854
 4240SOL    HW214171   1.767   1.243   3.826 -1.2711  1.9430  2.1944
 4241SOL     OW14172   5.234   2.306   4.585  0.1340 -0.4211  0.4290
 4241SOL    HW114173   5.203   2.259   4.662 -0.4462 -0.8538 -0.0612
 4241SOL    HW214174   5.325   2.276   4.574 -0.7929 -2.9728 -1.0202
 4242SOL     OW14175   4.067   6.352   0.707 -0.0586 -0.2092  0.1830
 4242SOL    HW114176   4.066   6.299   0.628 -0.2365  0.1764 -0.0787
 4242SOL    HW214177   4.153   6.336   0.746  0.0940 -0.2733 -0.1780
 4243SOL     OW14178   6.181   1.772   0.999  0.2354 -0.1403 -0.0239
 4243SOL    HW114179   6.248   1.713   0.965  0.5068  0.6171 -0.8418
 4243SOL    HW214180   6.213   1.860   0.978  0.3714  0.3869  2.1028
 4244SOL     OW14181   5.541   4.305   2.923 -0.1285 -0.0783 -0.0783
 4244SOL    HW114182   5.574   4.364   2.991  0.2671  0.6191 -0.8528
 4244SOL    HW214183   5.546   4.357   2.843  0.5989 -1.3034 -0.8486
 4245SOL     OW14184   1.383   4.496   2.336 -0.0300 -0.2703  0.1952
 4245SOL    HW114185   1.347   4.562   2.276  0.1607 -0.3956 -0.0575
 4245SOL    HW214186   1.384   4.540   2.421 -0.9026 -0.3157  0.2287
 4246SOL     OW14187   6.711   1.268   4.235 -0.1112 -0.1891 -0.2549
 4246SOL    HW114188   6.727   1.174   4.241 -1.4155 -0.4669 -0.8155
 4246SOL    HW214189   6.791   1.308   4.268  0.6158 -1.4926 -0.3693
 4247SOL     OW14190   2.489   2.638   1.949  0.5192 -0.0390  0.2371
 4247SOL    HW114191   2.518   2.693   2.022  1.0938 -1.3729  1.0518
 4247SOL    HW214192   2.497   2.694   1.872  2.9869  0.4463  0.7502
 4248SOL     OW14193   4.441   5.879   1.763 -0.1590 -0.1026  0.1437
 4248SOL    HW114194   4.367   5.882   1.703  0.5587 -0.0614 -0.7676
 4248SOL    HW214195   4.474   5.789   1.757  0.1619  0.0117  0.1786
 4249SOL     OW14196   3.627   6.563   6.896  0.2061  0.3889  0.2985
 4249SOL    HW114197   3.543   6.527   6.925 -0.5644  1.1625 -0.8898
 4249SOL    HW214198   3.625   6.556   6.801  2.4179 -1.5402  0.3040
 4250SOL     OW14199   6.927   5.772   0.072 -0.4991  0.1148 -0.1830
 4250SOL    HW114200   6.879   5.784   0.154  0.5918 -0.9822  0.6742
 4250SOL    HW214201   6.877   5.704   0.025 -0.5751  0.0075  0.0483
 4251SOL     OW14202   6.641   5.164   5.908 -0.0769 -0.9223  0.1567
 4251SOL    HW114203   6.588   5.244   5.910  0.6887 -0.4068  0.9974
 4251SOL    HW214204   6.583   5.096   5.942 -0.6218 -0.6550 -0.2183
 4252SOL     OW14205   4.705   3.720   6.296  0.1518 -0.0066  0.1135
 4252SOL    HW114206   4.750   3.700   6.214  0.7074  0.8996  0.1798
 4252SOL    HW214207   4.764   3.780   6.341 -1.6221  2.2441 -0.3634
 4253SOL     OW14208   1.018   4.560   4.916 -0.4150 -0.1840 -0.0196
 4253SOL    HW114209   0.926   4.580   4.933 -0.9548 -1.0128 -1.7997
 4253SOL    HW214210   1.042   4.617   4.842  0.2701 -0.5462 -0.0838
 4254SOL     OW14211   2.264   4.765   0.495  0.1779 -0.3147 -0.1951
 4254SOL    HW114212   2.351   4.762   0.455 -0.0386 -2.4259 -0.6328
 4254SOL    HW214213   2.235   4.674   0.497 -1.8340  0.2742  0.3974
 4255SOL     OW14214   0.480   4.815   1.269 -0.3710  0.1013  0.0233
 4255SOL    HW114215   0.429   4.894   1.249  2.2847  1.7895 -0.5527
 4255SOL    HW214216   0.501   4.824   1.362  1.1967  0.9193 -0.3811
 4256SOL     OW14217   0.041   0.890   5.994  0.4016  0.1055 -0.3061
 4256SOL    HW114218   0.046   0.959   6.060 -0.4679  0.4207 -0.5562
 4256SOL    HW214219  -0.007   0.930   5.921 -2.0769 -1.3852  0.3953
 4257SOL     OW14220   0.721   2.232   2.157 -0.5403  0.0268  0.0045
 4257SOL    HW114221   0.668   2.160   2.122 -0.2663  0.4200 -1.2674
 4257SOL    HW214222   0.704   2.305   2.097 -0.1825  0.7794  0.8054
 4258SOL     OW14223   4.416   1.074   4.314  0.4749 -0.1061 -0.2383
 4258SOL    HW114224   4.482   1.024   4.362  1.4583  0.8085 -0.5883
 4258SOL    HW214225   4.466   1.124   4.249 -0.5119  0.9199 -0.2494
 4259SOL     OW14226   3.659   6.305   4.512  0.6951 -0.2504  0.1639
 4259SOL    HW114227   3.689   6.391   4.540  1.7883 -0.6153  0.1312
 4259SOL    HW214228   3.721   6.243   4.551  0.1297 -1.0050 -0.0974
 4260SOL     OW14229   1.220   3.640   5.836  0.5981  1.1950  0.4510
 4260SOL    HW114230   1.286   3.580   5.870 -0.5113  0.0812  0.7047
 4260SOL    HW214231   1.217   3.711   5.900  0.4797  0.4918  1.2498
 4261SOL     OW14232   4.296   3.047   5.786 -0.0778 -0.6862 -0.0385
 4261SOL    HW114233   4.319   2.955   5.774 -1.3362 -1.2280  1.3735
 4261SOL    HW214234   4.225   3.062   5.723  0.2033 -0.6423 -0.3475
 4262SOL     OW14235   0.164   6.123   2.923 -0.8510  0.1136  0.7783
 4262SOL    HW114236   0.124   6.098   2.840  0.0404  0.6804  0.1552
 4262SOL    HW214237   0.180   6.217   2.915 -0.3062  0.0823  1.3867
 4263SOL     OW14238   1.437   0.466   3.386 -0.3327  0.2106 -0.5273
 4263SOL    HW114239   1.505   0.524   3.353 -0.9060  1.2586  0.0921
 4263SOL    HW214240   1.475   0.425   3.463  0.8199 -1.8463 -2.0644
 4264SOL     OW14241   5.263   1.015   1.221 -0.6195  0.5636  0.1843
 4264SOL    HW114242   5.346   1.030   1.266 -0.0619 -1.9565  0.0992
 4264SOL    HW214243   5.261   0.921   1.204 -2.1526  0.9878 -2.4979
 4265SOL     OW14244   4.994   7.041   6.585  0.6370  0.3334 -0.5621
 4265SOL    HW114245   5.073   6.994   6.608 -0.3197 -0.3975  1.4488
 4265SOL    HW214246   4.946   6.982   6.527  0.0969 -0.6297  0.8207
 4266SOL     OW14247   2.153   2.013   6.185 -0.0968  0.1462 -0.1551
 4266SOL    HW114248   2.163   1.950   6.256 -0.5006  0.4486  0.1793
 4266SOL    HW214249   2.100   1.968   6.120  0.6891 -0.3112 -0.4977
 4267SOL     OW14250   3.550   4.050   5.588  0.6935  0.3739 -0.3931
 4267SOL    HW114251   3.458   4.030   5.601  0.7538 -0.5143 -1.2310
 4267SOL    HW214252   3.568   4.123   5.648 -0.7740  1.1855 -0.8928
 4268SOL     OW14253   6.969   1.914   3.293 -0.2356  0.7841  0.8137
 4268SOL    HW114254   6.992   1.862   3.216 -1.6656 -0.0304  0.9006
 4268SOL    HW214255   6.990   1.858   3.367  1.3547  1.6565  1.0596
 4269SOL     OW14256   4.219   3.774   5.220 -0.1090  0.0246  0.0623
 4269SOL    HW114257   4.252   3.686   5.238 -0.1574  0.0778  0.4147
 4269SOL    HW214258   4.227   3.821   5.303 -0.8917  0.0957  0.1109
 4270SOL     OW14259   3.132   6.459   3.467  0.6176  0.5456 -0.8622
 4270SOL    HW114260   3.041   6.465   3.437  0.2683  0.5923  0.1598
 4270SOL    HW214261   3.168   6.384   3.420 -0.2028  0.0045 -0.6415
 4271SOL     OW14262   1.516   1.955   2.657  0.3716 -0.0804 -0.4345
 4271SOL    HW114263   1.447   2.018   2.678 -0.3425 -0.5360 -1.3418
 4271SOL    HW214264   1.503   1.884   2.720  0.0643 -0.1371 -0.5647
 4272SOL     OW14265   4.158   1.886   0.334 -0.6835 -0.0629  0.3640
 4272SOL    HW114266   4.193   1.967   0.370  0.4697 -0.5537  0.3752
 4272SOL    HW214267   4.103   1.851   0.404 -0.9875  0.5702  0.4540
 4273SOL     OW14268   1.899   6.572   6.388 -0.7510 -0.0338 -0.5492
 4273SOL    HW114269   1.876   6.644   6.330 -0.0728  0.8204  0.2113
 4273SOL    HW214270   1.992   6.586   6.408 -1.3144  0.5816  1.9144
 4274SOL     OW14271   3.450   5.137   1.583  0.5518  0.5587  0.0358
 4274SOL    HW114272   3.366   5.168   1.549 -0.2867 -1.4169  0.1709
 4274SOL    HW214273   3.515   5.177   1.525 -0.5112  1.4865 -0.5729
 4275SOL     OW14274   1.058   0.011   3.977  0.4274 -0.3516 -0.1423
 4275SOL    HW114275   1.103  -0.071   3.994  3.1851  0.9201 -0.7446
 4275SOL    HW214276   1.065   0.024   3.883 -0.6686  0.2117 -0.1630
 4276SOL     OW14277   2.395   4.875   7.007 -0.2594  0.3545 -0.0284
 4276SOL    HW114278   2.466   4.858   6.944 -0.3182  0.5297 -0.1405
 4276SOL    HW214279   2.315   4.858   6.958 -0.2844 -2.2597  0.7622
 4277SOL     OW14280   6.561   3.144   5.549 -0.2510 -0.7949 -0.2748
 4277SOL    HW114281   6.523   3.130   5.636  1.6284 -1.0938  0.5320
 4277SOL    HW214282   6.611   3.065   5.530  0.2526 -0.2945 -1.1591
 4278SOL     OW14283   0.314   3.356   7.001  0.1591 -0.2275 -0.2884
 4278SOL    HW114284   0.269   3.288   6.952  0.4047 -2.7683  2.7419
 4278SOL    HW214285   0.248   3.392   7.060  0.8129 -0.1463  0.4122
 4279SOL     OW14286   5.782   3.326   4.560  0.1113  0.1402 -0.4450
 4279SOL    HW114287   5.869   3.363   4.547  0.8130 -1.2691  0.0722
 4279SOL    HW214288   5.722   3.393   4.527  1.4314  0.5610 -2.1400
 4280SOL     OW14289   6.265   2.167   6.950 -0.1935  0.5407  0.1603
 4280SOL    HW114290   6.190   2.201   6.902 -0.3155 -0.2604 -0.2371
 4280SOL    HW214291   6.227   2.112   7.019  0.0128 -0.8572 -0.7862
 4281SOL     OW14292   6.253   5.700   5.027  0.4748 -0.1317 -0.1069
 4281SOL    HW114293   6.229   5.640   4.956  0.2141  0.1443 -0.2524
 4281SOL    HW214294   6.276   5.782   4.983  1.2362 -0.2507  0.0636
 4282SOL     OW14295   4.312   5.315   2.614  0.2482  0.4453 -0.2819
 4282SOL    HW114296   4.223   5.338   2.637  1.0501  2.6204  0.8948
 4282SOL    HW214297   4.322   5.343   2.523 -0.7990 -1.6282 -1.0922
 4283SOL     OW14298   5.040   0.795   6.762  0.3127  0.3228  0.1841
 4283SOL    HW114299   5.002   0.743   6.691  0.4226  0.5718 -0.0556
 4283SOL    HW214300   4.964   0.824   6.813  0.1113  1.4283 -0.7068
 4284SOL     OW14301   2.381   5.062   5.752  0.5394  0.4269 -0.5989
 4284SOL    HW114302   2.433   5.131   5.794 -2.7885  2.1123  1.1250
 4284SOL    HW214303   2.359   5.002   5.824  1.3643 -1.1933 -1.6315
 4285SOL     OW14304   4.712   6.585   0.675 -0.0543 -0.0841 -0.1128
 4285SOL    HW114305   4.655   6.656   0.647  0.6984  0.4305 -0.3472
 4285SOL    HW214306   4.799   6.623   0.679  0.4612 -1.1266 -0.7943
 4286SOL     OW14307   4.215   3.192   1.567 -0.2774  0.0329  0.1349
 4286SOL    HW114308   4.177   3.127   1.626  0.7237  0.7277  1.6312
 4286SOL    HW214309   4.146   3.258   1.556 -0.5096 -0.1446  0.4997
 4287SOL     OW14310   4.666   1.402   0.475 -0.2460  0.1740  0.0395
 4287SOL    HW114311   4.633   1.462   0.541 -0.1911  1.1404 -0.7752
 4287SOL    HW214312   4.619   1.426   0.395  0.8609  0.1579 -0.6471
 4288SOL     OW14313   1.330   7.029   4.567  0.3132 -0.1672 -0.4624
 4288SOL    HW114314   1.385   6.952   4.556  2.2209  1.0702 -0.0592
 4288SOL    HW214315   1.244   6.994   4.591  0.9127 -2.1672 -1.0329
 4289SOL     OW14316   2.072   5.707   1.347 -0.1393 -0.2501 -0.1814
 4289SOL    HW114317   2.061   5.802   1.355  1.3882 -0.0324 -0.3240
 4289SOL    HW214318   2.167   5.695   1.337 -0.1353 -1.8866  1.3544
 4290SOL     OW14319   0.695   7.017   4.953  0.2742 -0.1912 -0.1977
 4290SOL    HW114320   0.646   7.061   4.883  0.7315  3.5890  1.6039
 4290SOL    HW214321   0.755   6.958   4.906  0.2050  1.7383 -2.9906
 4291SOL     OW14322   6.272   2.780   5.159 -0.0269 -0.5296 -0.0192
 4291SOL    HW114323   6.359   2.803   5.193  0.5570  0.4761 -2.0565
 4291SOL    HW214324   6.213   2.795   5.233  1.2826  0.6449  0.8457
 4292SOL     OW14325   5.216   7.026   0.426 -0.1965 -0.1642  0.0845
 4292SOL    HW114326   5.304   7.051   0.397 -0.6816 -0.3327 -1.6263
 4292SOL    HW214327   5.225   6.936   0.456  0.3018 -0.0208  0.3761
 4293SOL     OW14328   2.105   4.078   1.316  0.1107 -0.4854  0.3581
 4293SOL    HW114329   2.014   4.094   1.343  0.4810 -1.2288  2.2505
 4293SOL    HW214330   2.102   4.073   1.221 -2.0542 -1.7833  0.4400
 4294SOL     OW14331   2.971   7.033   4.134 -0.0549  0.2147  0.1065
 4294SOL    HW114332   3.013   7.054   4.051 -1.8670  0.5308 -0.7803
 4294SOL    HW214333   2.961   6.938   4.132 -1.0448  0.3259 -0.5300
 4295SOL     OW14334   4.115   2.176   3.269 -0.5796 -0.2156  0.1105
 4295SOL    HW114335   4.088   2.131   3.189 -0.8701 -2.5410  1.4457
 4295SOL    HW214336   4.112   2.269   3.246 -0.4243 -0.8088 -2.6311
 4296SOL     OW14337   3.452   0.008   3.774  0.3314 -0.3292 -0.0334
 4296SOL    HW114338   3.471   0.000   3.868 -1.1625  1.5151  0.4780
 4296SOL    HW214339   3.424  -0.080   3.749  2.3917 -1.2911  0.8075
 4297SOL     OW14340   2.839   4.420   2.316 -0.0610  0.3687  0.5888
 4297SOL    HW114341   2.783   4.456   2.384 -0.9119 -0.3056  0.2718
 4297SOL    HW214342   2.842   4.326   2.334 -2.9244 -0.3901 -2.0479
 4298SOL     OW14343   0.815   7.094   7.015  0.0856 -0.0259 -0.3612
 4298SOL    HW114344   0.860   7.026   6.964 -0.6730  0.3957 -1.6478
 4298SOL    HW214345   0.762   7.141   6.950 -0.1314  1.1936  0.6660
 4299SOL     OW14346   3.404   2.198   3.787  0.1101 -0.3922  0.4081
 4299SOL    HW114347   3.477   2.143   3.758 -0.0885 -0.5153  0.1389
 4299SOL    HW214348   3.329   2.169   3.734  0.0738  0.3484  0.0445
 4300SOL     OW14349   4.531   7.104   6.741 -0.1343 -0.3323 -0.1078
 4300SOL    HW114350   4.616   7.063   6.760  0.1049 -0.0973 -0.6404
 4300SOL    HW214351   4.476   7.031   6.710  0.0827 -0.3705 -0.4082
 4301SOL     OW14352   6.467   7.029   3.172 -0.2182  0.1505 -0.3245
 4301SOL    HW114353   6.413   7.053   3.097 -0.1416  0.4698 -0.2780
 4301SOL    HW214354   6.504   7.112   3.203  0.9980 -0.1474 -0.8915
 4302SOL     OW14355   2.071   6.055   6.356 -0.6654 -0.0529  0.4262
 4302SOL    HW114356   1.975   6.059   6.359 -0.6899  1.0028 -0.8750
 4302SOL    HW214357   2.098   6.143   6.332  0.6221 -0.4173  0.4629
 4303SOL     OW14358   0.289   4.778   6.560  0.3486  0.1914  0.5528
 4303SOL    HW114359   0.246   4.842   6.617  1.3712  0.1070  1.4304
 4303SOL    HW214360   0.380   4.777   6.588  0.6759 -0.5457 -0.4695
 4304SOL     OW14361   4.937   4.700   5.598  0.3744  0.1152 -0.0917
 4304SOL    HW114362   4.912   4.711   5.690 -1.7263  0.5106 -0.6614
 4304SOL    HW214363   5.018   4.649   5.601  0.4361  0.2509  1.9759
 4305SOL     OW14364   3.058   3.901   5.529  0.0876 -0.0680  0.3141
 4305SOL    HW114365   3.133   3.841   5.532 -1.0027 -1.5374 -0.2352
 4305SOL    HW214366   3.086   3.977   5.579  1.7264 -0.8325  0.6315
 4306SOL     OW14367   0.645   3.211   0.431 -0.0843 -0.4508  0.6749
 4306SOL    HW114368   0.722   3.267   0.426 -0.5858  0.2902  0.9855
 4306SOL    HW214369   0.675   3.125   0.402  0.6484  0.0383 -0.0622
 4307SOL     OW14370   7.001   6.045   5.381 -0.7845 -0.0654 -0.1935
 4307SOL    HW114371   7.014   5.963   5.334  2.1120  0.7329 -1.0147
 4307SOL    HW214372   7.037   6.029   5.468  0.3112  0.4596 -0.5356
 4308SOL     OW14373   6.936   0.764   0.784  0.2653 -0.2593 -0.1384
 4308SOL    HW114374   6.983   0.714   0.852 -0.3279 -1.5773 -0.6760
 4308SOL    HW214375   6.954   0.717   0.703 -1.1271 -0.1777 -0.5147
 4309SOL     OW14376   1.655   4.559   5.005 -0.1030 -0.6768  0.0491
 4309SOL    HW114377   1.616   4.646   4.997 -0.7046 -0.4418  3.9360
 4309SOL    HW214378   1.725   4.558   4.940 -1.5396  1.7858 -1.7006
 4310SOL     OW14379   1.143   4.246   2.571 -0.2648 -0.2373  0.1950
 4310SOL    HW114380   1.207   4.306   2.610 -0.4146 -0.3301  0.5826
 4310SOL    HW214381   1.084   4.303   2.521  0.7302 -0.2360 -1.0473
 4311SOL     OW14382   0.726   5.510   3.703 -0.2240  0.1624 -0.4532
 4311SOL    HW114383   0.763   5.593   3.674  0.8076 -0.6577 -1.5785
 4311SOL    HW214384   0.705   5.524   3.795  0.3522  1.5174 -0.5038
 4312SOL     OW14385   1.387   2.453   1.091 -0.3846 -0.8373  0.8157
 4312SOL    HW114386   1.482   2.459   1.105 -0.1089 -3.8247  0.8420
 4312SOL    HW214387   1.364   2.364   1.117 -3.0742 -0.5032 -0.0646
 4313SOL     OW14388   4.440   1.366   6.743 -0.6364 -0.5287  0.4341
 4313SOL    HW114389   4.492   1.413   6.809 -0.1571 -0.1276 -0.2268
 4313SOL    HW214390   4.458   1.412   6.661 -0.9460 -1.2573 -0.0473
 4314SOL     OW14391   4.888   3.496   5.889  0.5511  0.4067 -0.6140
 4314SOL    HW114392   4.796   3.474   5.882  0.4581  0.4180  0.3786
 4314SOL    HW214393   4.934   3.424   5.846  0.0704  0.5394 -1.3476
 4315SOL     OW14394   3.059   4.515   3.513  0.1687  0.4137 -0.3354
 4315SOL    HW114395   3.001   4.487   3.443  0.7371  0.2539 -0.7554
 4315SOL    HW214396   3.076   4.608   3.495  1.5538  0.0116 -1.3456
 4316SOL     OW14397   6.186   4.169   3.549  0.4783  0.0353 -0.8250
 4316SOL    HW114398   6.099   4.130   3.553  0.0090  1.1575  0.9046
 4316SOL    HW214399   6.179   4.240   3.485  0.2781 -0.1913 -1.0577
 4317SOL     OW14400   2.680   4.493   6.552 -0.6540  0.7343 -0.2775
 4317SOL    HW114401   2.656   4.515   6.462  0.3407  1.7652 -0.3162
 4317SOL    HW214402   2.703   4.401   6.549 -0.2896  0.8450 -1.1647
 4318SOL     OW14403   1.735   1.818   3.397 -0.4401 -0.2976 -0.3412
 4318SOL    HW114404   1.826   1.809   3.426  0.1439  1.4661 -1.4475
 4318SOL    HW214405   1.684   1.814   3.478  0.6755 -0.5623  0.3773
 4319SOL     OW14406   4.105   0.723   2.244 -0.4542  0.1568  0.1409
 4319SOL    HW114407   4.105   0.767   2.159  1.0272  0.2385  0.1699
 4319SOL    HW214408   4.022   0.749   2.284 -0.0218  2.2572 -0.1910
 4320SOL     OW14409   4.197   2.733   1.505 -0.7046  0.0857  0.1396
 4320SOL    HW114410   4.200   2.726   1.410  1.4031 -2.6771  0.2907
 4320SOL    HW214411   4.248   2.812   1.525 -1.8820  1.1704 -0.9945
 4321SOL     OW14412   0.148   3.402   3.939 -0.3098 -0.2473  0.0121
 4321SOL    HW114413   0.205   3.389   3.863 -1.7809 -1.8378 -0.8738
 4321SOL    HW214414   0.197   3.463   3.995  2.8694 -2.4655 -0.0680
 4322SOL     OW14415   4.740   3.654   1.509  0.7133  0.2560  0.3641
 4322SOL    HW114416   4.654   3.657   1.467  1.6534 -0.1716 -1.7285
 4322SOL    HW214417   4.784   3.734   1.479  2.0030 -0.8690 -0.8885
 4323SOL     OW14418   6.605   5.449   4.087  0.5202  0.1485  0.3016
 4323SOL    HW114419   6.635   5.367   4.127  0.6665  0.1290  0.1547
 4323SOL    HW214420   6.651   5.517   4.135  1.3821  0.0846 -0.4160
 4324SOL     OW14421   2.886   5.197   5.112  0.4043 -0.2155  0.3510
 4324SOL    HW114422   2.874   5.274   5.056  0.2195 -0.4356  0.0835
 4324SOL    HW214423   2.968   5.158   5.081  0.5444 -0.0769  0.5465
 4325SOL     OW14424   1.026   0.901   0.817  0.0290 -0.1681 -0.0664
 4325SOL    HW114425   1.012   0.996   0.824  2.6946  0.3807 -0.9416
 4325SOL    HW214426   1.088   0.881   0.887  0.5304 -0.9898 -0.7322
 4326SOL     OW14427   1.304   6.725   4.460  0.6143 -0.1179  0.0843
 4326SOL    HW114428   1.298   6.667   4.384 -1.4759 -0.4836  0.4685
 4326SOL    HW214429   1.342   6.806   4.425  1.3656 -0.8902 -0.9514
 4327SOL     OW14430   6.628   1.653   0.490  0.1599  0.0969  0.5942
 4327SOL    HW114431   6.567   1.663   0.562  0.8392 -0.0102  1.1921
 4327SOL    HW214432   6.653   1.560   0.492 -1.7033 -0.5224 -1.3357
 4328SOL     OW14433   4.761   0.653   0.525 -0.5172 -0.3088 -0.3316
 4328SOL    HW114434   4.691   0.589   0.515 -0.7893  0.1214 -1.3559
 4328SOL    HW214435   4.797   0.663   0.437 -1.3866  1.9425 -0.5081
 4329SOL     OW14436   3.557   0.773   7.034 -0.3141 -0.7256  0.6807
 4329SOL    HW114437   3.485   0.740   7.086 -1.6940  0.0163 -0.6781
 4329SOL    HW214438   3.577   0.702   6.973  0.6714 -1.2332  1.5617
 4330SOL     OW14439   2.701   6.015   0.441 -0.2647  0.3622 -0.1897
 4330SOL    HW114440   2.698   5.930   0.398 -0.5275  0.2277  0.0986
 4330SOL    HW214441   2.721   5.996   0.532  1.5925  0.7181 -0.4680
 4331SOL     OW14442   2.720   3.190   3.652  0.1652  0.1373 -0.2972
 4331SOL    HW114443   2.624   3.181   3.656  0.3278 -1.5882  0.6971
 4331SOL    HW214444   2.749   3.110   3.609  1.2120  0.3167  0.0588
 4332SOL     OW14445   2.300   0.552   6.419  0.2022  0.4648 -0.4228
 4332SOL    HW114446   2.205   0.555   6.409  0.2169  1.4914 -0.4300
 4332SOL    HW214447   2.320   0.460   6.434 -0.9003  0.3789  0.6695
 4333SOL     OW14448   1.404   1.065   2.863 -0.4053 -0.0141 -1.1657
 4333SOL    HW114449   1.476   1.029   2.812  0.4126  2.3784 -1.8568
 4333SOL    HW214450   1.350   0.990   2.885  1.2479 -1.6300 -2.3201
 4334SOL     OW14451   5.144   4.866   3.993  0.0904  0.0491  0.7353
 4334SOL    HW114452   5.182   4.779   4.009  0.0405  0.0125  0.6562
 4334SOL    HW214453   5.156   4.881   3.899  0.4979  0.3202  0.8277
 4335SOL     OW14454   4.960   5.387   1.347 -0.2439 -0.0108 -0.6093
 4335SOL    HW114455   4.976   5.478   1.371 -1.1018 -0.3298  1.2627
 4335SOL    HW214456   4.962   5.339   1.429  0.0999 -1.7013 -1.5481
 4336SOL     OW14457   2.954   3.421   6.375  0.5037  0.1124  0.4452
 4336SOL    HW114458   2.915   3.385   6.454 -1.6881  0.5735 -0.3547
 4336SOL    HW214459   2.883   3.469   6.332  2.1482  1.5985 -0.7919
 4337SOL     OW14460   3.078   1.130   1.236  0.0951 -0.5589 -0.1179
 4337SOL    HW114461   2.994   1.131   1.283  1.0152  2.4700  1.6941
 4337SOL    HW214462   3.055   1.154   1.146 -1.0576 -0.7501  0.1037
 4338SOL     OW14463   1.924   3.819   4.390  0.0860 -0.7811  0.1971
 4338SOL    HW114464   1.991   3.752   4.403 -0.9593 -1.9506 -0.2164
 4338SOL    HW214465   1.951   3.864   4.310  1.2201 -0.1368  0.9033
 4339SOL     OW14466   6.857   0.837   5.434  0.0996 -0.3286  0.0916
 4339SOL    HW114467   6.881   0.762   5.380 -1.8751 -1.4561  0.6810
 4339SOL    HW214468   6.784   0.806   5.488 -0.5092  1.8891  0.6687
 4340SOL     OW14469   5.384   3.726   6.199 -0.5407  0.0933  0.4877
 4340SOL    HW114470   5.324   3.799   6.186  0.0538  0.1226 -2.7086
 4340SOL    HW214471   5.328   3.648   6.191 -0.5909  0.1552  0.2319
 4341SOL     OW14472   2.054   2.809   2.792 -1.1168 -0.6930  0.0821
 4341SOL    HW114473   2.021   2.719   2.792  0.0724 -1.2134 -2.5293
 4341SOL    HW214474   2.149   2.800   2.782 -0.8933  0.8723  0.5134
 4342SOL     OW14475   6.431   1.979   6.084  0.3755 -0.1769 -0.4286
 4342SOL    HW114476   6.368   1.908   6.092 -0.5585  0.7368  0.5320
 4342SOL    HW214477   6.476   1.981   6.168  0.9932 -0.1663 -0.7516
 4343SOL     OW14478   4.022   2.266   5.665  0.2617  0.0082 -1.1688
 4343SOL    HW114479   4.042   2.358   5.680 -1.2974  0.3709 -1.1299
 4343SOL    HW214480   4.013   2.229   5.753  1.5217 -0.3547 -1.1734
 4344SOL     OW14481   4.770   5.984   1.537 -0.2238  0.0371  0.0422
 4344SOL    HW114482   4.809   6.007   1.452 -1.2911  0.1083 -0.4390
 4344SOL    HW214483   4.742   5.893   1.526 -2.0568  0.6037 -0.3513
 4345SOL     OW14484   3.940   5.419   6.408 -0.2369  0.1847  0.4105
 4345SOL    HW114485   4.032   5.406   6.428  0.3160  1.2007 -1.2806
 4345SOL    HW214486   3.905   5.330   6.399  1.0205 -0.2342 -0.7248
 4346SOL     OW14487   3.575   4.339   4.017 -0.2131  0.1947  0.3007
 4346SOL    HW114488   3.517   4.291   3.959 -0.9512  1.2769  0.1169
 4346SOL    HW214489   3.663   4.326   3.980 -0.6845  1.0324 -1.2056
 4347SOL     OW14490   6.119   3.073   2.714 -0.1456  0.8371 -0.2651
 4347SOL    HW114491   6.103   3.114   2.629  0.4139  0.7187 -0.4321
 4347SOL    HW214492   6.055   3.113   2.773  1.3196  3.1089 -0.0473
 4348SOL     OW14493   3.818   3.861   1.308  0.1778 -0.1695 -0.3161
 4348SOL    HW114494   3.814   3.889   1.216  0.1481 -0.8745 -0.5388
 4348SOL    HW214495   3.895   3.804   1.312 -0.3880 -0.9418 -0.1392
 4349SOL     OW14496   4.940   4.673   3.646 -0.1561  0.1634 -0.6373
 4349SOL    HW114497   4.978   4.701   3.563 -0.9214 -1.1424 -1.4462
 4349SOL    HW214498   4.847   4.661   3.627 -0.2840 -0.4554  0.3286
 4350SOL     OW14499   6.710   2.250   6.185  0.0071 -0.4643  0.4036
 4350SOL    HW114500   6.702   2.280   6.095 -2.5589  0.3211  0.8238
 4350SOL    HW214501   6.734   2.157   6.177 -2.3573 -1.0123 -1.1675
 4351SOL     OW14502   6.632   6.926   0.047 -0.0119 -0.2087  0.8878
 4351SOL    HW114503   6.668   7.005   0.087  1.6218  1.3912 -3.1517
 4351SOL    HW214504   6.565   6.959  -0.014  0.0792 -1.9753 -0.2436
 4352SOL     OW14505   7.026   2.618   0.562  0.1534 -0.0902 -0.0880
 4352SOL    HW114506   7.074   2.602   0.644 -1.0397  0.8418  0.8437
 4352SOL    HW214507   6.973   2.539   0.549  0.2622 -0.1960  0.1091
 4353SOL     OW14508   0.833   5.158   1.224  0.3013 -0.2794 -0.2985
 4353SOL    HW114509   0.746   5.128   1.198 -0.4645  1.3343  0.2502
 4353SOL    HW214510   0.851   5.112   1.306 -0.2306 -0.2904 -0.1869
 4354SOL     OW14511   1.567   4.497   2.066  0.2953 -0.3289  0.2371
 4354SOL    HW114512   1.563   4.571   2.004  0.9418 -0.5712 -0.1063
 4354SOL    HW214513   1.517   4.428   2.023  0.8514 -0.5393 -0.0820
 4355SOL     OW14514   3.676   6.315   1.707  0.4388  0.0866  0.4782
 4355SOL    HW114515   3.734   6.240   1.697 -0.3586 -0.3813 -0.9822
 4355SOL    HW214516   3.698   6.352   1.793  1.3619 -1.3615  0.8951
 4356SOL     OW14517   0.370   1.850   0.627  0.5808 -0.1541 -0.0659
 4356SOL    HW114518   0.331   1.767   0.599  1.9713 -0.2917 -1.7443
 4356SOL    HW214519   0.422   1.826   0.705 -0.6083 -0.4371  0.6702
 4357SOL     OW14520   4.138   3.041   1.802  0.7287  0.2909 -0.2989
 4357SOL    HW114521   4.045   3.032   1.780  0.8306 -0.2540 -0.5263
 4357SOL    HW214522   4.159   2.961   1.849  1.6850 -0.7904 -2.4111
 4358SOL     OW14523   3.709   4.113   6.532  0.6323 -0.1728  0.0178
 4358SOL    HW114524   3.795   4.138   6.565  0.6342 -0.6815  0.4191
 4358SOL    HW214525   3.650   4.179   6.567  1.0671  1.1678 -1.6411
 4359SOL     OW14526   1.980   3.504   2.917  0.3326  0.0608  0.3444
 4359SOL    HW114527   2.023   3.584   2.886  1.9941 -0.9943 -0.2421
 4359SOL    HW214528   1.967   3.518   3.010  1.4200  0.6722  0.4169
 4360SOL     OW14529   5.783   2.367   6.698  0.0075 -0.7088 -0.1587
 4360SOL    HW114530   5.800   2.273   6.688 -1.7433 -1.0870  0.1912
 4360SOL    HW214531   5.784   2.401   6.609 -1.5052 -1.4841 -0.5020
 4361SOL     OW14532   5.022   3.323   5.756 -0.4634 -0.9134  1.0207
 4361SOL    HW114533   5.042   3.231   5.741 -0.9146 -0.8865  0.1191
 4361SOL    HW214534   4.984   3.352   5.673  0.8529  0.4185  0.8469
 4362SOL     OW14535   1.058   0.822   6.355  0.2570 -0.3285  0.2603
 4362SOL    HW114536   1.082   0.823   6.448  1.8356  1.8973 -0.1019
 4362SOL    HW214537   0.964   0.840   6.355  0.3587  0.3220  1.4106
 4363SOL     OW14538   4.904   1.328   0.061 -0.2077  0.5218  0.5860
 4363SOL    HW114539   4.988   1.298   0.026 -0.4497  1.1373 -0.5426
 4363SOL    HW214540   4.839   1.301  -0.003 -0.6704  1.6123  0.5660
 4364SOL     OW14541   0.346   3.376   4.725 -0.0541  0.5277 -0.0901
 4364SOL    HW114542   0.320   3.435   4.795 -0.3502 -0.3788  0.5793
 4364SOL    HW214543   0.437   3.400   4.706 -0.0020  0.8463  0.5259
 4365SOL     OW14544   4.713   4.655   3.260  0.5441  0.0654 -0.4245
 4365SOL    HW114545   4.639   4.661   3.200  1.7131 -0.2422 -1.9676
 4365SOL    HW214546   4.717   4.742   3.300 -0.3293  0.2480 -0.6997
 4366SOL     OW14547   0.453   3.889   3.617  0.5620 -0.0163  0.2122
 4366SOL    HW114548   0.372   3.872   3.569  0.0092  1.3412  0.6172
 4366SOL    HW214549   0.495   3.960   3.567  0.6215  0.5100  1.0009
 4367SOL     OW14550   0.455   1.186   1.982 -0.3931 -0.0700 -0.4579
 4367SOL    HW114551   0.406   1.106   1.964 -0.9392  0.1581 -0.0084
 4367SOL    HW214552   0.451   1.236   1.901 -1.6663  0.3359 -0.1703
 4368SOL     OW14553   0.455   4.537   1.794 -0.2509  0.1559 -0.2466
 4368SOL    HW114554   0.473   4.598   1.865 -0.8564 -0.4878  0.4695
 4368SOL    HW214555   0.514   4.463   1.810 -0.8571 -0.2855 -0.0364
 4369SOL     OW14556   0.377   3.137   3.015  0.2694  0.2995 -0.1123
 4369SOL    HW114557   0.298   3.150   2.962 -0.3215  0.3322  0.7524
 4369SOL    HW214558   0.442   3.103   2.953 -0.2798  0.6981 -0.9328
 4370SOL     OW14559   2.852   0.844   6.384 -0.7353 -0.3400 -0.1695
 4370SOL    HW114560   2.918   0.776   6.369 -0.0380 -0.1457  1.7709
 4370SOL    HW214561   2.897   0.909   6.438 -1.7688  1.0685 -0.9608
 4371SOL     OW14562   3.612   0.698   3.678 -0.4471  0.2088 -0.0666
 4371SOL    HW114563   3.704   0.673   3.682 -0.7320 -0.9653 -0.4583
 4371SOL    HW214564   3.603   0.738   3.591 -0.5163 -0.6296 -0.4587
 4372SOL     OW14565   4.100   0.132   5.641 -0.1465 -0.1387  0.0438
 4372SOL    HW114566   4.021   0.181   5.664 -0.3932  0.1540 -1.3411
 4372SOL    HW214567   4.136   0.178   5.564  0.1547 -1.5342 -0.6839
 4373SOL     OW14568   6.893   0.417   4.117  0.2066 -0.2368 -0.2158
 4373SOL    HW114569   6.858   0.492   4.069  1.4312  0.8320  0.5048
 4373SOL    HW214570   6.816   0.362   4.136 -1.1205  1.9787  1.2543
 4374SOL     OW14571   6.491   0.131   5.445  0.0050 -0.1481  0.4107
 4374SOL    HW114572   6.584   0.120   5.466  0.2165 -1.7114 -1.1155
 4374SOL    HW214573   6.456   0.042   5.447 -1.6197  0.4846  1.5318
 4375SOL     OW14574   4.271   5.977   5.882  0.4452 -0.1052  0.8592
 4375SOL    HW114575   4.288   5.904   5.941 -1.4294  0.8573  2.7018
 4375SOL    HW214576   4.176   5.981   5.874  0.5059  1.9276  0.5420
 4376SOL     OW14577   6.309   0.669   0.918  0.0483 -0.5144  0.0731
 4376SOL    HW114578   6.383   0.635   0.968  0.7424 -1.6294 -1.6459
 4376SOL    HW214579   6.349   0.723   0.850 -0.8898  1.1029  0.7428
 4377SOL     OW14580   3.217   1.926   1.621 -0.3297 -0.5909  0.2772
 4377SOL    HW114581   3.170   2.004   1.653  1.1230  1.3271 -1.8900
 4377SOL    HW214582   3.148   1.866   1.593 -1.5759  1.1986 -0.7522
 4378SOL     OW14583   5.732   5.131   3.039 -0.1375  0.2147 -0.2879
 4378SOL    HW114584   5.792   5.128   2.965 -0.3158  3.1529 -0.6595
 4378SOL    HW214585   5.764   5.063   3.098  3.2717  1.2749 -0.6897
 4379SOL     OW14586   1.935   3.523   0.498  0.2635  0.3899  0.4688
 4379SOL    HW114587   1.878   3.475   0.437  3.5196  1.3679 -3.7458
 4379SOL    HW214588   1.910   3.615   0.487  1.0532  0.6044  0.4596
 4380SOL     OW14589   3.796   4.590   6.515  0.1300 -0.0745  0.3384
 4380SOL    HW114590   3.844   4.647   6.456 -0.5121  0.7197  0.5758
 4380SOL    HW214591   3.743   4.649   6.568 -0.2954 -0.8666  0.8099
 4381SOL     OW14592   4.960   6.694   0.568  0.3290 -0.0286  0.0702
 4381SOL    HW114593   5.052   6.718   0.564  0.2684  0.6752  1.9230
 4381SOL    HW214594   4.924   6.721   0.483  1.0328  3.3152  0.6979
 4382SOL     OW14595   0.098   1.084   4.983 -0.0195 -0.3487  0.7627
 4382SOL    HW114596   0.078   1.128   4.900  2.0040 -3.0712 -1.3423
 4382SOL    HW214597   0.179   1.125   5.014 -0.0717 -0.2146  0.7226
 4383SOL     OW14598   5.492   4.659   2.434 -0.8507 -0.6491  0.4758
 4383SOL    HW114599   5.396   4.651   2.428 -0.7800 -0.5613 -3.4341
 4383SOL    HW214600   5.507   4.754   2.440 -1.0403 -0.5927  0.1483
 4384SOL     OW14601   5.954   5.285   0.580 -0.4458 -0.1095  0.3722
 4384SOL    HW114602   6.041   5.247   0.563 -0.0285 -0.0480  2.1970
 4384SOL    HW214603   5.973   5.369   0.621 -1.3933  0.3184 -0.0416
 4385SOL     OW14604   2.574   5.187   3.829  0.3442  0.1892 -0.3709
 4385SOL    HW114605   2.480   5.175   3.819  0.1570 -0.2297  1.5334
 4385SOL    HW214606   2.601   5.237   3.752 -1.7483  1.9813 -0.0166
 4386SOL     OW14607   2.715   2.097   4.099  0.0897  0.2849  0.6935
 4386SOL    HW114608   2.691   2.168   4.040 -0.4765  0.1031  0.7050
 4386SOL    HW214609   2.673   2.019   4.063 -1.4892  0.4137  2.1178
 4387SOL     OW14610   3.521   6.533   5.702  0.2457 -0.2805  0.5958
 4387SOL    HW114611   3.488   6.488   5.624 -0.6952 -0.0452  0.8420
 4387SOL    HW214612   3.479   6.487   5.775  0.9082 -0.3261  0.9579
 4388SOL     OW14613   1.993   5.247   4.265 -0.0129  0.1311 -0.7413
 4388SOL    HW114614   1.961   5.214   4.349 -2.4277  1.8493 -0.8729
 4388SOL    HW214615   2.050   5.320   4.288  0.7682 -0.5170 -0.5835
 4389SOL     OW14616   2.299   4.212   0.277 -0.2159 -0.3749 -0.4565
 4389SOL    HW114617   2.221   4.209   0.332 -0.0528  0.6751 -0.1524
 4389SOL    HW214618   2.264   4.213   0.187 -0.5042 -1.1270 -0.3656
 4390SOL     OW14619   1.544   0.752   3.633  0.2301 -0.6485  0.0191
 4390SOL    HW114620   1.592   0.686   3.583  1.6636  0.8854 -0.7209
 4390SOL    HW214621   1.539   0.717   3.722 -0.6860 -2.5628 -0.7389
 4391SOL     OW14622   2.365   3.235   2.324 -0.3601 -0.4097  0.2013
 4391SOL    HW114623   2.407   3.275   2.401  2.4663 -1.8498 -0.4372
 4391SOL    HW214624   2.426   3.252   2.252 -2.2978 -0.2423 -1.4970
 4392SOL     OW14625   6.586   2.595   3.637  0.4198  0.5859 -0.1633
 4392SOL    HW114626   6.582   2.533   3.710 -0.3378  1.2050  0.3395
 4392SOL    HW214627   6.551   2.677   3.673  1.0285  1.2022 -0.9229
 4393SOL     OW14628   6.698   4.928   2.809 -0.2851 -0.8651 -0.3920
 4393SOL    HW114629   6.701   4.920   2.904  0.7139 -1.1885 -0.4360
 4393SOL    HW214630   6.724   4.842   2.777  1.5580 -0.1487 -0.9311
 4394SOL     OW14631   5.935   3.126   2.919  0.2037  0.0295 -0.2824
 4394SOL    HW114632   5.938   3.132   3.015  1.3653  1.4265 -0.3768
 4394SOL    HW214633   5.850   3.164   2.896  0.6385  1.2918  0.1163
 4395SOL     OW14634   0.340   4.027   0.457 -0.5183 -0.1622  0.0829
 4395SOL    HW114635   0.343   3.976   0.375 -1.6846 -0.0076 -0.0648
 4395SOL    HW214636   0.250   4.057   0.463 -0.2987  0.3034  1.1526
 4396SOL     OW14637   4.399   2.929   2.871 -0.1977 -0.3053 -0.2986
 4396SOL    HW114638   4.322   2.935   2.815  0.2213  0.3404 -0.8156
 4396SOL    HW214639   4.378   2.859   2.934 -1.7872  0.8424  0.4983
 4397SOL     OW14640   5.036   4.260   5.211 -0.1572 -0.3262  0.3296
 4397SOL    HW114641   5.101   4.268   5.142 -0.8413 -2.1480 -0.5827
 4397SOL    HW214642   5.078   4.205   5.278 -0.9258 -2.1454 -0.5958
 4398SOL     OW14643   0.163   3.665   1.920  0.2871  0.3211  0.1625
 4398SOL    HW114644   0.145   3.582   1.962  2.1246 -0.6393 -0.8184
 4398SOL    HW214645   0.077   3.700   1.896 -0.4898 -1.5110  0.1844
 4399SOL     OW14646   6.978   0.531   3.081  0.1337 -0.3365 -0.6875
 4399SOL    HW114647   6.943   0.486   3.004  1.0336 -2.1124 -0.0988
 4399SOL    HW214648   7.072   0.534   3.066  0.2571 -0.1940  0.0995
 4400SOL     OW14649   3.851   3.766   3.424 -0.2089  0.1415 -0.2980
 4400SOL    HW114650   3.889   3.837   3.476  0.7092  1.6375 -2.8407
 4400SOL    HW214651   3.920   3.700   3.420 -0.4338 -0.1712  0.6487
 4401SOL     OW14652   2.868   5.324   6.897 -0.5705  0.1029 -0.0598
 4401SOL    HW114653   2.912   5.325   6.983 -1.6657  0.5008  0.5145
 4401SOL    HW214654   2.778   5.298   6.916 -1.1544  1.3537 -0.9199
 4402SOL     OW14655   2.127   6.808   4.950  0.4410 -0.1628 -0.3095
 4402SOL    HW114656   2.180   6.818   5.030 -2.6969 -1.4859  2.1656
 4402SOL    HW214657   2.110   6.898   4.921  1.2203  0.3847  0.8388
 4403SOL     OW14658   7.127   6.179   0.421  0.3760  0.2054  0.3637
 4403SOL    HW114659   7.070   6.248   0.387  2.7008  1.6248 -0.9648
 4403SOL    HW214660   7.105   6.173   0.514 -1.5560  1.0110  0.0153
 4404SOL     OW14661   0.882   1.663   1.963 -0.0821  0.0014 -0.3373
 4404SOL    HW114662   0.883   1.665   2.059  0.0237 -3.1989 -0.1761
 4404SOL    HW214663   0.969   1.692   1.937  1.4179 -3.0343  0.8237
 4405SOL     OW14664   0.443   0.590   2.075  0.5850 -0.4241 -0.2936
 4405SOL    HW114665   0.410   0.658   2.134 -0.8719  0.9032 -2.4869
 4405SOL    HW214666   0.409   0.508   2.110 -2.0363  0.5430 -0.4059
 4406SOL     OW14667   2.789   5.140   6.002 -0.1239 -0.3757 -0.4079
 4406SOL    HW114668   2.852   5.070   6.021  0.6026 -0.0970 -1.6204
 4406SOL    HW214669   2.838   5.221   6.017 -0.8285 -0.1248  0.5733
 4407SOL     OW14670   5.037   0.156   6.959 -0.5842 -0.4748  0.0040
 4407SOL    HW114671   5.011   0.247   6.971  0.8895 -0.0514  0.1237
 4407SOL    HW214672   5.052   0.148   6.865 -2.6308 -1.1701 -0.3283
 4408SOL     OW14673   5.625   2.231   1.154  0.0263 -0.2137 -0.1919
 4408SOL    HW114674   5.673   2.229   1.236  0.6631 -0.3061 -0.5611
 4408SOL    HW214675   5.622   2.140   1.126 -2.7939 -0.6438  1.1971
 4409SOL     OW14676   3.286   2.795   0.891  0.4575  0.1205 -0.4112
 4409SOL    HW114677   3.337   2.794   0.810 -0.1324  1.3247 -0.8131
 4409SOL    HW214678   3.214   2.855   0.874 -0.3884 -0.5675  0.5891
 4410SOL     OW14679   5.948   3.596   1.321  0.2277  0.3844 -0.1930
 4410SOL    HW114680   5.992   3.527   1.271 -1.3467  0.2579 -1.4909
 4410SOL    HW214681   5.931   3.665   1.257 -1.2714  0.4860  0.2679
 4411SOL     OW14682   2.894   0.754   7.111  0.5781  0.4758  0.8121
 4411SOL    HW114683   2.955   0.688   7.079 -0.4181  0.8545 -2.2382
 4411SOL    HW214684   2.816   0.705   7.136  0.8664  0.2715  1.3099
 4412SOL     OW14685   5.448   2.273   1.584  0.2889  0.1733 -0.0989
 4412SOL    HW114686   5.534   2.233   1.596  0.6906  0.9410 -0.3867
 4412SOL    HW214687   5.446   2.298   1.491  0.0575  0.8696  0.0912
 4413SOL     OW14688   2.118   1.851   2.411 -0.1315  0.2841  0.8272
 4413SOL    HW114689   2.091   1.819   2.497  0.4094 -2.1751  0.1441
 4413SOL    HW214690   2.212   1.836   2.409 -0.2743 -0.5583 -0.5183
 4414SOL     OW14691   5.175   2.824   1.814 -0.4198  0.4304  0.1486
 4414SOL    HW114692   5.197   2.746   1.865 -1.6734 -0.1737 -0.2026
 4414SOL    HW214693   5.113   2.794   1.748  0.7598  1.2952 -1.4511
 4415SOL     OW14694   2.804   3.133   4.889 -0.4400 -0.1662  0.1357
 4415SOL    HW114695   2.774   3.143   4.979 -2.1525 -0.7080 -0.3328
 4415SOL    HW214696   2.751   3.194   4.838 -0.5771 -0.9499 -0.6977
 4416SOL     OW14697   4.362   2.569   1.692 -0.0883 -0.3702 -0.0015
 4416SOL    HW114698   4.446   2.614   1.686 -1.1388  1.8169  0.7252
 4416SOL    HW214699   4.311   2.602   1.619 -0.1724 -2.1250 -0.7817
 4417SOL     OW14700   6.912   4.247   0.653  0.5148  0.3688 -0.0749
 4417SOL    HW114701   6.973   4.184   0.690  0.1988 -0.9270 -1.6008
 4417SOL    HW214702   6.931   4.330   0.697  1.6223 -0.5707  1.2758
 4418SOL     OW14703   6.648   4.257   0.777 -0.0515  0.2575 -0.0471
 4418SOL    HW114704   6.742   4.265   0.794 -0.1547  1.6538 -0.0400
 4418SOL    HW214705   6.636   4.298   0.691 -0.6067 -0.2646 -0.2222
 4419SOL     OW14706   2.550   5.212   4.260 -0.2516 -0.4122 -0.6002
 4419SOL    HW114707   2.530   5.197   4.168  1.2946 -0.7258 -0.9110
 4419SOL    HW214708   2.636   5.254   4.260 -0.8814  0.9649  0.6442
 4420SOL     OW14709   2.684   3.527   5.435  0.0583 -0.2413 -0.0012
 4420SOL    HW114710   2.707   3.617   5.456 -1.7568  0.2704 -0.0563
 4420SOL    HW214711   2.716   3.476   5.509 -1.2141  0.8049  1.3411
 4421SOL     OW14712   4.541   3.903   2.350  0.7223 -0.1046  0.2680
 4421SOL    HW114713   4.488   3.906   2.429  1.1318 -0.0360  0.5389
 4421SOL    HW214714   4.616   3.959   2.368 -0.1932  1.5938 -0.9189
 4422SOL     OW14715   2.986   4.883   5.133 -0.1289 -0.4832  0.0286
 4422SOL    HW114716   3.014   4.818   5.069  0.1580 -1.3737  1.0334
 4422SOL    HW214717   2.895   4.860   5.153 -0.2675 -0.1123 -0.1692
 4423SOL     OW14718   6.805   4.655   3.225  0.0382  0.0864 -0.3434
 4423SOL    HW114719   6.866   4.585   3.200 -0.1789 -0.0357 -0.5301
 4423SOL    HW214720   6.794   4.645   3.320  0.3166  0.1164 -0.3061
 4424SOL     OW14721   3.607   4.270   5.740 -0.5028 -0.3507  0.1364
 4424SOL    HW114722   3.659   4.233   5.812 -1.6261 -0.1189  1.0929
 4424SOL    HW214723   3.558   4.342   5.780 -1.6218 -0.6030 -0.7275
 4425SOL     OW14724   3.609   3.425   6.780  0.2315  0.1043  0.7852
 4425SOL    HW114725   3.529   3.454   6.824  0.7630  0.3967  1.5757
 4425SOL    HW214726   3.634   3.498   6.724 -0.3787 -0.2222  0.0654
 4426SOL     OW14727   4.446   2.001   0.800  0.1321 -0.7434 -0.3926
 4426SOL    HW114728   4.520   2.006   0.740  0.4712 -0.4170  0.0507
 4426SOL    HW214729   4.474   2.048   0.878 -1.5999  2.0259 -1.3027
 4427SOL     OW14730   0.440   2.817   3.686 -0.5881  0.0660 -0.2003
 4427SOL    HW114731   0.432   2.877   3.612 -0.4378 -1.0250 -1.1352
 4427SOL    HW214732   0.531   2.787   3.683 -0.2954  0.7765  1.0569
 4428SOL     OW14733   5.021   3.430   6.533 -0.1425 -0.3555  0.4218
 4428SOL    HW114734   5.063   3.474   6.607 -0.9042 -1.2369  1.4123
 4428SOL    HW214735   5.035   3.336   6.550 -0.6928 -0.5848 -0.3376
 4429SOL     OW14736   3.075   4.819   1.579  0.2777  0.2526 -0.1935
 4429SOL    HW114737   3.097   4.775   1.497 -1.1673 -2.9060  0.9803
 4429SOL    HW214738   3.159   4.829   1.624  0.5933 -2.6643  0.0541
 4430SOL     OW14739   6.210   0.567   6.689 -0.9815 -0.1539 -0.2207
 4430SOL    HW114740   6.143   0.574   6.756  0.0970  0.6884  0.7970
 4430SOL    HW214741   6.291   0.597   6.731 -0.1046 -0.4072 -1.6343
 4431SOL     OW14742   3.131   1.952   0.470 -0.5585 -0.1131 -0.2113
 4431SOL    HW114743   3.079   1.944   0.550 -0.1213 -0.9495  0.0004
 4431SOL    HW214744   3.191   2.025   0.486  0.5027 -1.1641  0.8031
 4432SOL     OW14745   3.811   2.357   2.165  0.4115  0.9464  0.2829
 4432SOL    HW114746   3.883   2.310   2.122 -1.0444  0.2040 -1.5054
 4432SOL    HW214747   3.748   2.289   2.188 -0.9940  1.7858 -0.8412
 4433SOL     OW14748   4.037   4.774   0.746 -0.4583 -0.1016 -0.2957
 4433SOL    HW114749   4.034   4.705   0.812 -0.4348  3.3577  3.7552
 4433SOL    HW214750   4.126   4.808   0.750 -1.0250  1.4984 -0.5934
 4434SOL     OW14751   1.731   4.883   0.474 -0.3118 -0.3905 -0.4611
 4434SOL    HW114752   1.762   4.837   0.396 -2.8567 -2.1356 -0.5972
 4434SOL    HW214753   1.650   4.926   0.446 -0.5885  0.0352  0.9000
 4435SOL     OW14754   2.668   3.130   5.463 -0.2869  0.2693 -0.0799
 4435SOL    HW114755   2.670   3.051   5.517 -2.7602  0.2154  0.0379
 4435SOL    HW214756   2.734   3.188   5.502 -1.2437 -0.1739  2.3686
 4436SOL     OW14757   2.256   6.882   5.179  0.1006 -0.3477  0.6624
 4436SOL    HW114758   2.207   6.907   5.257 -0.2081 -1.1064  0.7233
 4436SOL    HW214759   2.314   6.811   5.209 -0.3706 -0.9840  0.1039
 4437SOL     OW14760   4.263   5.274   4.277 -0.2179 -0.1201  0.1130
 4437SOL    HW114761   4.205   5.349   4.266  1.3639  1.1269 -0.1298
 4437SOL    HW214762   4.213   5.212   4.330 -1.4544  1.2365  0.5864
 4438SOL     OW14763   5.896   2.069   1.948  0.0354  1.3094 -0.3319
 4438SOL    HW114764   5.937   2.074   1.861 -0.6361  1.0514 -0.6715
 4438SOL    HW214765   5.969   2.061   2.009  0.4789 -1.3293 -1.0770
 4439SOL     OW14766   2.452   2.044   3.950 -0.5254  0.0211 -0.0620
 4439SOL    HW114767   2.404   2.127   3.957  0.5205  0.6245  0.1962
 4439SOL    HW214768   2.408   1.997   3.879 -1.0772  0.8350 -0.2735
 4440SOL     OW14769   0.998   0.435   3.990  0.2266 -0.1321 -0.2780
 4440SOL    HW114770   1.035   0.452   3.904 -0.4068 -0.6995 -0.6752
 4440SOL    HW214771   1.003   0.519   4.036  1.8068 -0.1451 -0.3775
 4441SOL     OW14772   6.636   6.268   1.607  0.1433 -0.5086  0.2264
 4441SOL    HW114773   6.605   6.211   1.677 -1.4286  1.4049  1.2134
 4441SOL    HW214774   6.586   6.240   1.530  0.5028 -1.4187  0.3138
 4442SOL     OW14775   7.054   3.784   6.489 -0.3817  0.1974  0.2314
 4442SOL    HW114776   7.134   3.835   6.481 -0.4758  0.4239  0.7326
 4442SOL    HW214777   7.063   3.716   6.422  0.1108  0.3727  0.1126
 4443SOL     OW14778   6.743   6.356   2.433 -0.0569  0.2012 -0.3623
 4443SOL    HW114779   6.753   6.405   2.351 -1.5106 -0.9847 -1.3169
 4443SOL    HW214780   6.672   6.400   2.479 -1.0397 -0.6427 -1.0029
 4444SOL     OW14781   4.660   5.242   0.537 -0.0622  0.2078 -0.1586
 4444SOL    HW114782   4.621   5.318   0.493  0.8397  0.8165  0.0578
 4444SOL    HW214783   4.597   5.219   0.605 -0.7248  0.2537 -0.7496
 4445SOL     OW14784   2.261   0.611   4.051 -0.1146 -0.2262  0.3795
 4445SOL    HW114785   2.175   0.592   4.090 -0.2011  0.4143  0.5053
 4445SOL    HW214786   2.314   0.643   4.124  0.3634 -1.0066  0.3864
 4446SOL     OW14787   4.033   3.863   5.012 -0.1417 -0.7522  0.3297
 4446SOL    HW114788   4.073   3.949   5.001 -0.5161 -0.8437 -3.0576
 4446SOL    HW214789   4.076   3.825   5.088  2.2136  1.2687  0.1371
 4447SOL     OW14790   5.141   4.033   3.969 -0.6218 -0.0205  0.2149
 4447SOL    HW114791   5.155   4.112   4.022  2.0312  0.4986 -1.0651
 4447SOL    HW214792   5.057   4.047   3.927 -1.5440  0.7698  2.1813
 4448SOL     OW14793   3.493   1.914   1.683 -0.1256  0.2066 -0.1059
 4448SOL    HW114794   3.528   1.915   1.595 -0.5121 -1.4106 -0.3252
 4448SOL    HW214795   3.398   1.920   1.672 -0.0896  2.1856  0.3466
 4449SOL     OW14796   2.022   1.817   3.227  0.0677 -0.0637 -0.2582
 4449SOL    HW114797   1.976   1.774   3.299  0.9107  0.3733  0.5570
 4449SOL    HW214798   2.099   1.762   3.211  0.6969  0.6587  0.2203
 4450SOL     OW14799   0.801   1.970   2.565  0.3028  0.3048  0.3684
 4450SOL    HW114800   0.775   1.983   2.656 -1.4034  0.7036 -0.1275
 4450SOL    HW214801   0.731   2.012   2.514  1.3932  0.4074 -1.1228
 4451SOL     OW14802   4.171   3.967   0.116 -0.2905  0.5900 -0.2956
 4451SOL    HW114803   4.179   4.059   0.091 -0.5065  1.5165  2.6754
 4451SOL    HW214804   4.128   3.969   0.201  2.1218 -2.0506  1.1712
 4452SOL     OW14805   2.173   7.089   4.089  0.6084  0.5185  0.0393
 4452SOL    HW114806   2.186   7.076   4.183 -1.2802  1.6400  0.5135
 4452SOL    HW214807   2.193   7.182   4.075 -1.3346  0.9484 -0.1793
 4453SOL     OW14808   0.530   6.084   4.972 -0.0844 -0.3263  0.9142
 4453SOL    HW114809   0.528   6.174   4.939 -0.1052 -0.9109 -0.7741
 4453SOL    HW214810   0.452   6.043   4.934  0.9097 -1.5501  0.1161
 4454SOL     OW14811   6.181   1.682   0.258 -0.0664 -0.1791  0.3961
 4454SOL    HW114812   6.275   1.662   0.248 -0.3013 -0.5990 -1.3544
 4454SOL    HW214813   6.148   1.611   0.313  0.6904  0.1731  1.3405
 4455SOL     OW14814   3.059   4.026   2.742 -0.3442  0.6369  0.1682
 4455SOL    HW114815   2.993   4.094   2.729  0.4036  1.8857  2.4467
 4455SOL    HW214816   3.024   3.972   2.813  0.5878  0.6222  0.6157
 4456SOL     OW14817   0.726   1.317   2.534 -0.1151  0.0482  0.4601
 4456SOL    HW114818   0.745   1.409   2.551  0.0584 -0.0324  0.7107
 4456SOL    HW214819   0.640   1.318   2.492  0.2510  0.3828 -0.2902
 4457SOL     OW14820   5.005   5.383   5.315 -0.4109  0.2417  0.0404
 4457SOL    HW114821   5.015   5.314   5.380 -1.5489  0.4683  0.4863
 4457SOL    HW214822   5.019   5.339   5.231 -1.6072 -0.6752  0.2833
 4458SOL     OW14823   2.410   6.034   5.603  0.0078 -0.4677 -0.3332
 4458SOL    HW114824   2.420   6.129   5.596 -1.2757 -0.1877  1.1353
 4458SOL    HW214825   2.465   5.999   5.533 -2.6477  1.4940 -3.7382
 4459SOL     OW14826   2.119   0.648   2.896 -0.0626  0.2079 -0.2597
 4459SOL    HW114827   2.204   0.605   2.899  0.3598  0.9482 -1.0063
 4459SOL    HW214828   2.056   0.576   2.896  0.3669 -0.3358  3.3601
 4460SOL     OW14829   0.297   4.494   5.440 -0.3952  0.0144  0.1364
 4460SOL    HW114830   0.382   4.485   5.395  0.1106  0.0155  1.0669
 4460SOL    HW214831   0.248   4.556   5.386 -0.4217 -1.2035 -1.2865
 4461SOL     OW14832   0.013   5.801   2.894  0.2157 -0.5898  0.3602
 4461SOL    HW114833   0.094   5.815   2.844 -0.7660  1.6876 -0.7826
 4461SOL    HW214834   0.034   5.829   2.983  0.7328 -0.0572  0.0811
 4462SOL     OW14835   3.294   0.485   3.917 -0.1294 -0.3821  0.1128
 4462SOL    HW114836   3.377   0.493   3.965  0.9235 -0.5769 -1.6269
 4462SOL    HW214837   3.319   0.456   3.830 -1.8387  1.5768 -1.1085
 4463SOL     OW14838   3.372   3.474   6.867  0.5912 -0.5960 -0.4129
 4463SOL    HW114839   3.278   3.459   6.858  0.3698  1.3847 -2.1806
 4463SOL    HW214840   3.380   3.519   6.951 -0.2686  0.5622 -0.9157
 4464SOL     OW14841   3.425   4.420   2.662  0.3979  0.2333  0.5627
 4464SOL    HW114842   3.380   4.503   2.645  0.5765  0.1075 -0.6170
 4464SOL    HW214843   3.476   4.437   2.741  0.4281  1.2525  0.3471
 4465SOL     OW14844   0.008   5.685   6.702  0.4410  1.0403 -0.3886
 4465SOL    HW114845   0.032   5.673   6.794 -0.1484  1.8685 -0.1162
 4465SOL    HW214846   0.047   5.610   6.657 -1.1204 -0.5919  0.8600
 4466SOL     OW14847   7.043   4.800   3.324  0.4254 -0.3564  0.1007
 4466SOL    HW114848   7.023   4.857   3.398  0.4044 -0.4407  0.1595
 4466SOL    HW214849   7.006   4.715   3.347  0.0815 -0.2855 -0.1764
 4467SOL     OW14850   0.621   4.653   5.262 -0.0043  0.0257  0.1741
 4467SOL    HW114851   0.568   4.585   5.303  0.4762 -1.7366 -1.9514
 4467SOL    HW214852   0.673   4.607   5.196  0.9600  2.3451 -0.8001
 4468SOL     OW14853   2.510   2.536   4.841  0.4433  0.2619  0.0799
 4468SOL    HW114854   2.575   2.587   4.889  1.1019  0.8549 -1.3722
 4468SOL    HW214855   2.562   2.467   4.798 -0.0155  0.1784 -0.3443
 4469SOL     OW14856   4.862   5.788   0.367 -0.2969 -0.0916 -0.0458
 4469SOL    HW114857   4.868   5.713   0.426 -1.0413  1.1494  1.6970
 4469SOL    HW214858   4.892   5.862   0.419  0.3859  0.8674 -1.7086
 4470SOL     OW14859   0.375   1.892   5.062  0.0029  0.2537 -0.9219
 4470SOL    HW114860   0.322   1.870   5.139  1.9087  1.6467  0.8800
 4470SOL    HW214861   0.336   1.972   5.028 -1.1696 -0.6471 -1.8099
 4471SOL     OW14862   7.023   5.499   6.136 -0.4311 -0.8341 -0.3098
 4471SOL    HW114863   7.086   5.529   6.202 -1.7772  1.4857  0.0388
 4471SOL    HW214864   6.938   5.515   6.176 -1.2772 -2.5162 -1.3565
 4472SOL     OW14865   1.553   3.535   1.252 -0.3244 -0.6019 -0.5555
 4472SOL    HW114866   1.505   3.574   1.179 -1.2011 -1.7806 -0.6400
 4472SOL    HW214867   1.488   3.482   1.298  0.8021 -2.0056 -0.4944
 4473SOL     OW14868   5.820   6.417   3.023  0.6826 -0.2678  0.2493
 4473SOL    HW114869   5.733   6.447   2.993  0.2688 -1.1146  0.5744
 4473SOL    HW214870   5.839   6.341   2.968  1.8847  0.7478 -0.8085
 4474SOL     OW14871   1.466   3.650   2.893 -0.7374  0.0583  1.1527
 4474SOL    HW114872   1.490   3.691   2.976 -1.0791 -1.3962  2.0127
 4474SOL    HW214873   1.471   3.556   2.910  0.4389 -0.2932 -0.8708
 4475SOL     OW14874   4.765   0.352   1.313  0.4267  0.2781 -0.3604
 4475SOL    HW114875   4.731   0.299   1.241  0.5270  0.6930 -0.7213
 4475SOL    HW214876   4.844   0.393   1.277 -0.1366  1.3757 -0.3943
 4476SOL     OW14877   5.856   2.673   0.549 -0.5539  0.1779 -0.4038
 4476SOL    HW114878   5.791   2.624   0.500 -0.6577  0.1308 -0.2216
 4476SOL    HW214879   5.879   2.616   0.622  0.2203 -0.1033 -0.8584
 4477SOL     OW14880   3.250   2.103   1.903  0.2345  0.2424 -0.7279
 4477SOL    HW114881   3.283   2.165   1.839  0.1745  0.7367 -0.2856
 4477SOL    HW214882   3.159   2.130   1.919  0.5511  0.7162  0.2845
 4478SOL     OW14883   5.270   4.321   5.643 -0.0020 -0.0623 -0.1146
 4478SOL    HW114884   5.345   4.306   5.585 -0.4745  0.7402 -0.9503
 4478SOL    HW214885   5.267   4.242   5.697 -0.1656 -1.3299 -1.8601
 4479SOL     OW14886   6.044   0.493   6.490 -0.5882 -0.2257 -0.4869
 4479SOL    HW114887   6.108   0.536   6.547  2.0061 -0.8619 -2.7165
 4479SOL    HW214888   6.015   0.416   6.540 -0.4365  0.6314  0.9708
 4480SOL     OW14889   6.559   1.352   1.607  0.0397  0.5378  0.3103
 4480SOL    HW114890   6.600   1.295   1.542  0.2236  1.5366 -0.4702
 4480SOL    HW214891   6.553   1.298   1.686  0.7290 -0.3687 -0.2391
 4481SOL     OW14892   0.352   2.124   1.579  0.0482 -0.6137 -0.3373
 4481SOL    HW114893   0.357   2.189   1.509  1.0225 -1.3615 -0.9899
 4481SOL    HW214894   0.431   2.139   1.631  0.4955 -1.5217 -0.7314
 4482SOL     OW14895   3.943   4.779   6.961 -0.1742  0.5182 -0.2316
 4482SOL    HW114896   4.019   4.809   6.911  0.7356  1.2773  1.4825
 4482SOL    HW214897   3.972   4.698   7.003 -0.4893  0.5280  0.0109
 4483SOL     OW14898   2.159   7.120   5.837  0.3572  0.0372 -0.5593
 4483SOL    HW114899   2.149   7.033   5.876 -0.7349  0.5572  0.3668
 4483SOL    HW214900   2.212   7.104   5.758  0.0649 -1.4857 -0.4917
 4484SOL     OW14901   5.527   6.500   6.051 -0.1555  0.5332 -0.1625
 4484SOL    HW114902   5.437   6.517   6.024 -0.6555 -1.3232  0.2425
 4484SOL    HW214903   5.541   6.407   6.032  2.1567  1.0757 -1.5630
 4485SOL     OW14904   3.392   6.800   0.636 -0.8880 -0.4446 -0.0352
 4485SOL    HW114905   3.450   6.725   0.649 -1.9946 -0.9610  2.6559
 4485SOL    HW214906   3.401   6.851   0.716 -2.0436  0.9853 -0.7686
 4486SOL     OW14907   4.862   5.853   6.886 -0.1083 -0.8713  0.0684
 4486SOL    HW114908   4.895   5.881   6.971  0.4010  1.3617 -0.7991
 4486SOL    HW214909   4.855   5.934   6.835  0.0755 -2.1970 -2.1884
 4487SOL     OW14910   0.518   3.346   3.520  0.5192 -0.4588 -0.2678
 4487SOL    HW114911   0.545   3.300   3.441 -0.4126 -1.7756  0.1372
 4487SOL    HW214912   0.423   3.355   3.510  0.6951  1.6136 -0.4303
 4488SOL     OW14913   1.438   0.314   5.666 -0.2454  0.0991 -0.2602
 4488SOL    HW114914   1.351   0.285   5.640 -0.6425  0.2052  0.8703
 4488SOL    HW214915   1.485   0.233   5.685 -0.0687  0.0382 -0.9541
 4489SOL     OW14916   3.145   5.883   5.010  0.4008 -0.0042 -0.6072
 4489SOL    HW114917   3.125   5.795   4.977  0.6033 -0.6508  0.9263
 4489SOL    HW214918   3.240   5.889   5.005  0.3455  0.4214 -1.3668
 4490SOL     OW14919   2.959   2.435   4.470 -0.1492  0.2439  0.5270
 4490SOL    HW114920   3.025   2.455   4.536 -1.0266  0.3880  1.3971
 4490SOL    HW214921   3.008   2.426   4.389  0.8960  0.6468  1.0869
 4491SOL     OW14922   0.956   0.751   2.933  0.2982 -0.0829  0.0569
 4491SOL    HW114923   0.905   0.830   2.911 -0.2386 -0.4720 -0.1348
 4491SOL    HW214924   1.036   0.760   2.882  0.4266  0.5395  0.3556
 4492SOL     OW14925   0.898   3.554   1.878  0.5660  0.2473  0.1044
 4492SOL    HW114926   0.909   3.471   1.831 -1.0856  0.9968 -1.7677
 4492SOL    HW214927   0.960   3.613   1.837  0.4802  0.4040  0.1992
 4493SOL     OW14928   4.791   0.949   2.914  0.5768 -0.0240  0.2069
 4493SOL    HW114929   4.855   0.962   2.984  0.8880 -1.2554  0.1662
 4493SOL    HW214930   4.838   0.901   2.846 -0.6611 -2.0630  0.6824
 4494SOL     OW14931   6.043   0.322   6.023 -0.1576 -0.1608 -0.1993
 4494SOL    HW114932   6.123   0.313   5.971 -0.1663  1.7864 -0.6169
 4494SOL    HW214933   6.066   0.382   6.094 -1.0771 -0.0344  0.0128
 4495SOL     OW14934   4.878   0.740   5.064 -0.3293  0.0005  0.2370
 4495SOL    HW114935   4.891   0.645   5.070 -3.5388 -0.5832 -0.0336
 4495SOL    HW214936   4.869   0.757   4.971  0.4513  0.6214  0.2714
 4496SOL     OW14937   1.686   2.619   0.702 -0.1057 -0.4429 -0.2183
 4496SOL    HW114938   1.775   2.589   0.720 -0.0436  1.3113  3.0920
 4496SOL    HW214939   1.631   2.546   0.727  0.3156 -0.6495  0.1200
 4497SOL     OW14940   4.421   3.925   1.663  0.1836  0.0590  0.0922
 4497SOL    HW114941   4.420   3.873   1.744 -0.2538  0.8529  0.6099
 4497SOL    HW214942   4.512   3.922   1.634  0.3697 -0.1382  0.6828
 4498SOL     OW14943   5.888   6.501   5.868  0.2602 -0.5940 -0.1869
 4498SOL    HW114944   5.880   6.406   5.859  0.1250 -0.5482 -0.5451
 4498SOL    HW214945   5.973   6.514   5.911 -0.0012 -0.9059  0.4374
 4499SOL     OW14946   1.338   1.865   5.536 -0.2895 -0.3125  0.2884
 4499SOL    HW114947   1.410   1.841   5.477  0.2688 -0.3997  0.9881
 4499SOL    HW214948   1.379   1.921   5.602 -1.2146  1.1227 -0.2951
 4500SOL     OW14949   4.495   2.811   4.647  0.1606  0.0145  0.3803
 4500SOL    HW114950   4.499   2.735   4.588  1.0994 -1.3205  2.0664
 4500SOL    HW214951   4.449   2.779   4.724  2.5603  0.3979  2.0914
 4501SOL     OW14952   3.155   0.124   1.354 -0.3956  0.7324 -0.0616
 4501SOL    HW114953   3.195   0.134   1.440 -0.0730 -0.4040 -0.0694
 4501SOL    HW214954   3.075   0.073   1.369  0.9052 -1.6539 -0.6940
 4502SOL     OW14955   1.509   3.102   1.386 -0.1925  0.2279 -0.4166
 4502SOL    HW114956   1.471   3.188   1.403 -1.1315 -0.0941 -0.8060
 4502SOL    HW214957   1.524   3.066   1.473 -3.1492 -0.6195 -0.1312
 4503SOL     OW14958   1.060   7.045   5.652 -0.1650  0.2694 -0.3800
 4503SOL    HW114959   1.015   7.080   5.576  0.4886  1.0210 -0.4350
 4503SOL    HW214960   1.006   7.071   5.727 -0.3332  0.3119 -0.5162
 4504SOL     OW14961   0.724   5.875   6.083  0.0336  0.4721  0.3164
 4504SOL    HW114962   0.774   5.847   6.160  0.9024  1.1656  0.0170
 4504SOL    HW214963   0.700   5.793   6.039  3.6550  0.0413 -1.2571
 4505SOL     OW14964   1.729   6.192   6.109  0.0341  0.6464 -0.6949
 4505SOL    HW114965   1.817   6.167   6.137 -0.2824  0.2193 -0.0484
 4505SOL    HW214966   1.700   6.258   6.172 -0.9876 -0.8909  0.5291
 4506SOL     OW14967   2.197   1.766   7.006 -0.1404  0.0393  0.4530
 4506SOL    HW114968   2.256   1.737   6.936 -0.1231 -2.1839  1.3283
 4506SOL    HW214969   2.220   1.712   7.081 -0.9532  1.5750  1.8817
 4507SOL     OW14970   0.515   3.667   4.167 -0.3296 -0.2185 -0.3531
 4507SOL    HW114971   0.578   3.735   4.142 -0.0136 -0.0219  0.8880
 4507SOL    HW214972   0.567   3.587   4.174 -0.3175 -0.1703  0.1357
 4508SOL     OW14973   2.601   1.118   6.936 -0.1919  0.1108  0.1014
 4508SOL    HW114974   2.525   1.105   6.993  0.4625 -1.8220  0.6154
 4508SOL    HW214975   2.604   1.039   6.882  0.9275  0.5760 -0.5455
 4509SOL     OW14976   0.525   6.837   5.728 -0.0127  0.5984 -0.0622
 4509SOL    HW114977   0.575   6.841   5.646  2.8796  1.7950  1.5821
 4509SOL    HW214978   0.482   6.752   5.726  1.6933 -0.3099 -1.8926
 4510SOL     OW14979   5.046   1.153   3.633 -0.3131 -0.1644  0.1674
 4510SOL    HW114980   5.075   1.203   3.557  2.2426 -1.3101  0.2748
 4510SOL    HW214981   4.998   1.079   3.597 -0.4307  0.0987 -0.2215
 4511SOL     OW14982   5.874   6.805   6.059 -0.0924 -0.1744  0.4566
 4511SOL    HW114983   5.894   6.729   6.113  1.2844 -0.2633 -0.1402
 4511SOL    HW214984   5.898   6.777   5.970 -0.7105  0.5530  0.0505
 4512SOL     OW14985   1.973   1.107   1.393 -0.4603  0.0491 -0.0865
 4512SOL    HW114986   1.946   1.184   1.343  2.2605  1.1490 -0.0399
 4512SOL    HW214987   2.008   1.047   1.327  1.6789  0.8573  0.2029
 4513SOL     OW14988   1.140   5.082   5.608  0.2117  0.4981  0.2173
 4513SOL    HW114989   1.117   5.171   5.633 -1.2610  0.4842 -0.9420
 4513SOL    HW214990   1.056   5.041   5.586  0.9593 -0.8897 -0.1492
 4514SOL     OW14991   6.997   0.413   1.885  0.0658 -0.5376  0.9051
 4514SOL    HW114992   6.959   0.391   1.970 -0.4554  0.6900  1.0160
 4514SOL    HW214993   6.969   0.342   1.827  0.1347 -1.2051  1.6697
 4515SOL     OW14994   4.352   1.862   2.197 -0.7640 -0.6158 -0.0959
 4515SOL    HW114995   4.443   1.837   2.212 -0.8236 -0.3424  0.7817
 4515SOL    HW214996   4.354   1.912   2.116  0.2400  1.2907  1.0306
 4516SOL     OW14997   3.280   4.475   6.467 -0.1786 -0.1165 -0.4523
 4516SOL    HW114998   3.324   4.485   6.383 -0.2179 -1.4999 -0.6656
 4516SOL    HW214999   3.207   4.415   6.449  0.8192 -1.8109  0.8723
 4517SOL     OW15000   2.124   4.968   0.591  0.2920  0.2484 -0.0610
 4517SOL    HW115001   2.054   4.931   0.644 -0.4704 -0.7499 -1.7073
 4517SOL    HW215002   2.166   4.893   0.550  0.1000  1.0323 -1.7817
 4518SOL     OW15003   3.657   4.340   2.110  0.1536  0.8951 -0.6474
 4518SOL    HW115004   3.581   4.298   2.151  0.1891  0.0757 -1.4008
 4518SOL    HW215005   3.725   4.272   2.111 -0.3035  0.2969 -3.4126
 4519SOL     OW15006   0.149   1.361   5.769  0.2334  0.1089 -0.6651
 4519SOL    HW115007   0.088   1.407   5.827  0.7503 -0.9691  0.8028
 4519SOL    HW215008   0.094   1.321   5.702 -0.6595 -0.5251  0.4099
 4520SOL     OW15009   6.457   0.560   2.583  0.0337 -0.0488  0.0932
 4520SOL    HW115010   6.507   0.641   2.568  0.0326 -0.1324 -0.3917
 4520SOL    HW215011   6.495   0.523   2.662 -0.7268  1.0114  0.9716
 4521SOL     OW15012   5.396   3.692   1.591  0.4797  0.1230  0.0712
 4521SOL    HW115013   5.427   3.770   1.545  1.4719  0.8591  1.8964
 4521SOL    HW215014   5.380   3.628   1.521  0.3960  1.6876 -1.4011
 4522SOL     OW15015   2.052   1.223   4.519  0.0589 -0.5427  0.5070
 4522SOL    HW115016   1.963   1.210   4.488  0.1032  0.6653 -0.1785
 4522SOL    HW215017   2.103   1.239   4.440  1.0442 -1.9855  0.8220
 4523SOL     OW15018   4.323   3.395   4.846  0.3688  0.1518 -0.2370
 4523SOL    HW115019   4.402   3.351   4.878  0.0490 -0.0787  0.2482
 4523SOL    HW215020   4.254   3.330   4.858  0.3990 -0.3391 -2.3936
 4524SOL     OW15021   0.710   3.907   3.138 -0.8661 -0.0959  0.2708
 4524SOL    HW115022   0.803   3.885   3.130 -0.6604  1.0676 -0.8724
 4524SOL    HW215023   0.676   3.846   3.203  0.5805 -0.9052  0.2985
 4525SOL     OW15024   2.748   3.454   1.623 -0.6138  0.0218 -0.0620
 4525SOL    HW115025   2.779   3.449   1.532 -1.8588  0.7219 -0.5620
 4525SOL    HW215026   2.657   3.483   1.615 -0.3822  1.3224  1.4594
 4526SOL     OW15027   2.600   0.804   6.474 -0.3315 -0.1071  0.5244
 4526SOL    HW115028   2.696   0.802   6.464 -0.4690  1.4378 -1.8193
 4526SOL    HW215029   2.567   0.801   6.385 -2.3810  2.3107  1.1126
 4527SOL     OW15030   1.951   1.473   1.514 -0.5490  0.0662 -0.0405
 4527SOL    HW115031   1.877   1.414   1.500 -0.1885 -0.8699  1.7645
 4527SOL    HW215032   1.915   1.561   1.499 -1.5355 -0.4734 -0.9990
 4528SOL     OW15033   6.085   3.579   0.299 -0.0409  0.0283  0.3415
 4528SOL    HW115034   6.047   3.664   0.319 -0.8293 -0.0022 -0.8837
 4528SOL    HW215035   6.118   3.546   0.383  1.8314  2.2540  0.5622
 4529SOL     OW15036   1.188   3.940   5.235 -0.3593  0.2282  0.1559
 4529SOL    HW115037   1.120   3.899   5.289 -1.6765  2.2773  0.1917
 4529SOL    HW215038   1.254   3.969   5.298  0.0425 -0.8377  0.2367
 4530SOL     OW15039   1.948   6.876   1.712 -0.0991  0.0167 -0.0623
 4530SOL    HW115040   1.948   6.971   1.697  0.7333  0.0546  0.1179
 4530SOL    HW215041   1.945   6.866   1.807 -1.8440 -0.1769 -0.1034
 4531SOL     OW15042   3.835   0.408   2.746 -0.2687  0.9920 -0.3487
 4531SOL    HW115043   3.834   0.459   2.665  2.5484 -0.7712 -1.6488
 4531SOL    HW215044   3.844   0.317   2.717  2.2764  0.3940  1.8922
 4532SOL     OW15045   3.619   1.459   0.808 -0.2567 -0.6190  0.2591
 4532SOL    HW115046   3.668   1.529   0.766 -1.6188  0.0719 -0.2270
 4532SOL    HW215047   3.580   1.409   0.735  0.0641 -1.4201  0.6208
 4533SOL     OW15048   4.623   6.737   6.267  0.3959 -0.2756  0.1668
 4533SOL    HW115049   4.576   6.819   6.282  0.7685 -0.5477  3.6352
 4533SOL    HW215050   4.617   6.723   6.173 -0.4093  3.2686 -0.4655
 4534SOL     OW15051   6.290   5.185   0.753 -0.2402 -0.0199  0.1814
 4534SOL    HW115052   6.378   5.219   0.768  0.2704 -1.6206  1.0109
 4534SOL    HW215053   6.269   5.212   0.664  1.6315 -0.6979 -0.5262
 4535SOL     OW15054   6.071   1.704   4.168 -0.0825 -0.0813  0.0943
 4535SOL    HW115055   6.030   1.767   4.227 -1.9208 -1.2136  0.1184
 4535SOL    HW215056   6.122   1.646   4.225 -1.0717 -0.5857  0.4980
 4536SOL     OW15057   2.665   3.923   6.526 -0.0849  0.0658 -0.0667
 4536SOL    HW115058   2.700   3.835   6.540 -1.5693 -0.5347  0.0778
 4536SOL    HW215059   2.570   3.911   6.529 -0.3024  1.7774  0.5552
 4537SOL     OW15060   2.916   4.883   3.172  0.2024  0.6353 -0.5695
 4537SOL    HW115061   2.948   4.856   3.086  0.5287 -0.1928 -0.1984
 4537SOL    HW215062   2.948   4.973   3.183 -0.7060  1.1266 -1.7363
 4538SOL     OW15063   2.384   2.434   3.204  0.0860  0.1671 -0.5314
 4538SOL    HW115064   2.314   2.446   3.268 -0.3941  0.6510 -1.1425
 4538SOL    HW215065   2.460   2.478   3.243  0.3564 -1.1957  0.5843
 4539SOL     OW15066   6.163   1.070   0.380 -0.0239 -0.1792  0.2083
 4539SOL    HW115067   6.140   1.130   0.309 -2.8786 -0.6641  0.6108
 4539SOL    HW215068   6.126   1.111   0.459  1.0996 -0.7726  1.0808
 4540SOL     OW15069   6.573   3.963   3.763  0.5496  0.2813  0.5068
 4540SOL    HW115070   6.506   4.022   3.797  0.8673  0.9109  0.0570
 4540SOL    HW215071   6.544   3.876   3.790 -0.4704  0.5376  0.2853
 4541SOL     OW15072   5.059   2.607   3.644 -0.0520  0.2956 -0.3348
 4541SOL    HW115073   5.034   2.559   3.565  2.7484 -1.5840 -0.2063
 4541SOL    HW215074   5.102   2.686   3.611  0.2379  0.0010 -0.6694
 4542SOL     OW15075   3.260   4.096   3.071 -0.0942 -0.4732  0.0410
 4542SOL    HW115076   3.289   4.145   2.994 -0.6199 -2.1508 -1.2732
 4542SOL    HW215077   3.183   4.143   3.102 -1.3645 -1.1496 -1.9677
 4543SOL     OW15078   6.217   3.228   1.710  0.8471  0.3671  0.1174
 4543SOL    HW115079   6.308   3.198   1.718  0.7880  0.3927  1.0303
 4543SOL    HW215080   6.222   3.306   1.655  1.3778  0.3613  0.1529
 4544SOL     OW15081   4.793   0.174   0.119 -0.1130 -0.1373  0.1472
 4544SOL    HW115082   4.787   0.113   0.046  0.0587  0.2265 -0.1723
 4544SOL    HW215083   4.865   0.141   0.172 -0.5324 -0.6648  0.4023
 4545SOL     OW15084   7.036   3.354   4.615  0.6418 -0.2631  0.3224
 4545SOL    HW115085   7.014   3.261   4.618 -1.1305  0.1323  0.7845
 4545SOL    HW215086   7.104   3.360   4.548  0.3813 -1.7992 -0.1265
 4546SOL     OW15087   2.411   2.632   3.428 -0.2847 -0.0726  0.6090
 4546SOL    HW115088   2.391   2.721   3.398  0.7197 -0.1282 -0.3203
 4546SOL    HW215089   2.349   2.616   3.499  0.0675  1.7001  1.3872
 4547SOL     OW15090   1.107   3.338   1.395 -0.1474  0.0422  0.3844
 4547SOL    HW115091   1.086   3.402   1.327 -1.3848  0.3126  0.9842
 4547SOL    HW215092   1.047   3.265   1.378  0.8055 -0.6897  0.0974
 4548SOL     OW15093   0.065   5.914   0.756 -0.0523  0.4256  0.1335
 4548SOL    HW115094   0.092   5.829   0.791 -2.1532  0.1371  1.1961
 4548SOL    HW215095   0.045   5.896   0.664  2.4032  0.4946 -0.4928
 4549SOL     OW15096   1.905   2.649   2.156 -0.0237 -0.6260 -0.6818
 4549SOL    HW115097   1.985   2.691   2.190  0.2995 -2.1293  0.5183
 4549SOL    HW215098   1.853   2.722   2.122  0.7307  0.7047  0.8544
 4550SOL     OW15099   6.226   1.929   5.605 -0.3811 -0.0740 -0.1848
 4550SOL    HW115100   6.245   1.894   5.692 -2.0707 -3.8140 -1.1546
 4550SOL    HW215101   6.311   1.929   5.560  0.0186 -0.8735  0.5441
 4551SOL     OW15102   1.078   0.122   0.236 -0.3120  0.2378 -0.3523
 4551SOL    HW115103   1.055   0.193   0.296 -1.9911 -1.0189  0.5788
 4551SOL    HW215104   1.101   0.166   0.154  1.5186  1.9658  1.0094
 4552SOL     OW15105   4.254   3.212   0.681 -0.1900  0.3367 -0.8138
 4552SOL    HW115106   4.340   3.213   0.724 -0.0624  1.1074 -1.0697
 4552SOL    HW215107   4.274   3.228   0.588 -0.5330 -0.4142 -1.0215
 4553SOL     OW15108   2.513   4.380   7.114  0.5158 -0.2250  0.1585
 4553SOL    HW115109   2.462   4.440   7.170  0.2499 -0.5900  0.3084
 4553SOL    HW215110   2.449   4.316   7.084  0.7689 -0.3324 -0.1466
 4554SOL     OW15111   1.520   4.005   1.758  0.3309  0.3956 -0.5838
 4554SOL    HW115112   1.555   4.022   1.846 -2.3553 -0.8828  0.8550
 4554SOL    HW215113   1.455   4.074   1.745 -0.8879 -0.6987 -0.5351
 4555SOL     OW15114   0.180   5.195   3.628  0.4128  0.1553  0.1518
 4555SOL    HW115115   0.162   5.167   3.717 -0.5549 -0.2740 -0.1631
 4555SOL    HW215116   0.202   5.115   3.581  0.3462  0.2963 -0.1267
 4556SOL     OW15117   6.912   3.045   1.105 -0.1213 -0.3282 -0.5202
 4556SOL    HW115118   6.908   3.129   1.152 -0.3742 -0.2505 -0.6804
 4556SOL    HW215119   7.005   3.023   1.103 -0.1392 -0.5748  0.4524
 4557SOL     OW15120   0.320   6.719   4.143 -0.1174 -0.2349  0.3524
 4557SOL    HW115121   0.398   6.740   4.193  0.5774  0.3666 -0.9178
 4557SOL    HW215122   0.354   6.678   4.063 -1.2655 -3.3456  1.3079
 4558SOL     OW15123   5.823   1.131   2.455 -0.6636 -0.3131  0.3510
 4558SOL    HW115124   5.734   1.155   2.429 -0.4866 -0.7792 -0.7129
 4558SOL    HW215125   5.854   1.207   2.504 -0.8486  0.8356 -1.2240
 4559SOL     OW15126   3.161   4.258   1.038 -0.3364 -0.4034  0.2934
 4559SOL    HW115127   3.157   4.342   1.083 -1.1578  0.7438 -1.7390
 4559SOL    HW215128   3.198   4.197   1.101  1.2351  1.7087  1.5022
 4560SOL     OW15129   4.907   3.580   2.164 -0.4938  0.0024 -0.0991
 4560SOL    HW115130   4.919   3.555   2.072 -0.1626 -1.2884  0.2717
 4560SOL    HW215131   4.874   3.670   2.160 -0.8288 -0.1525 -1.4865
 4561SOL     OW15132   2.449   1.620   2.676 -0.2417 -0.0408 -0.5822
 4561SOL    HW115133   2.467   1.546   2.734 -0.7467 -0.5961 -1.1093
 4561SOL    HW215134   2.369   1.659   2.710  0.1555  0.4205 -0.1619
 4562SOL     OW15135   0.935   6.662   6.642  0.5109 -0.1544  0.2431
 4562SOL    HW115136   0.878   6.604   6.592 -0.2096  0.4493  0.3412
 4562SOL    HW215137   0.891   6.672   6.727  1.6708 -1.1083  0.9914
 4563SOL     OW15138   4.113   3.782   1.245  0.3049 -0.7779 -0.3831
 4563SOL    HW115139   4.183   3.828   1.292 -2.0315  1.2801  1.3021
 4563SOL    HW215140   4.119   3.692   1.277  0.8046 -0.1410  1.4826
 4564SOL     OW15141   5.693   1.663   6.511  0.3372 -0.7108  0.0346
 4564SOL    HW115142   5.600   1.642   6.513  0.5882 -1.8239  0.4611
 4564SOL    HW215143   5.732   1.608   6.579  1.1283  0.6961  0.7872
 4565SOL     OW15144   3.417   0.565   2.446  0.6488  0.6602  0.5149
 4565SOL    HW115145   3.409   0.652   2.407  0.0615  0.8204  0.9780
 4565SOL    HW215146   3.461   0.513   2.379 -1.2826  0.6340 -0.8336
 4566SOL     OW15147   7.131   5.308   2.553  0.2838 -0.1386 -0.1518
 4566SOL    HW115148   7.148   5.382   2.496 -0.5343  0.4090  0.3023
 4566SOL    HW215149   7.202   5.246   2.533  1.3874  1.0427 -0.0342
 4567SOL     OW15150   3.435   6.453   6.442 -0.6263  0.2108 -0.1895
 4567SOL    HW115151   3.520   6.415   6.422 -2.5749 -3.5358 -2.5515
 4567SOL    HW215152   3.400   6.398   6.513 -2.5597 -1.0018 -1.9759
 4568SOL     OW15153   1.001   1.103   5.073 -0.5815  0.1556  0.7633
 4568SOL    HW115154   1.060   1.037   5.110  0.3650 -0.6199 -1.8879
 4568SOL    HW215155   1.059   1.174   5.044 -0.9696 -0.2232 -1.0913
 4569SOL     OW15156   5.448   3.275   1.326 -0.1264 -0.7413 -0.0779
 4569SOL    HW115157   5.486   3.352   1.285 -0.6961  0.5262  1.6684
 4569SOL    HW215158   5.518   3.240   1.381 -0.3144 -0.6274  0.2344
 4570SOL     OW15159   5.676   5.605   1.741  0.5733 -0.1192  0.1655
 4570SOL    HW115160   5.766   5.633   1.755  1.1084 -0.4806 -2.1347
 4570SOL    HW215161   5.667   5.525   1.793  1.0492  0.7389  1.6362
 4571SOL     OW15162   1.482   3.036   3.698  0.1673  0.1850 -0.2340
 4571SOL    HW115163   1.572   3.066   3.691 -0.3407  1.6652 -0.9814
 4571SOL    HW215164   1.431   3.104   3.654 -1.4208 -0.0722  1.1096
 4572SOL     OW15165   4.842   5.518   1.086 -0.1053  0.3892 -0.1917
 4572SOL    HW115166   4.747   5.504   1.093 -0.1900  0.2970 -1.3292
 4572SOL    HW215167   4.878   5.477   1.164 -0.9827  0.1984  0.1270
 4573SOL     OW15168   1.317   0.109   4.391 -0.0520  0.2535 -0.1279
 4573SOL    HW115169   1.279   0.029   4.429 -0.5644  0.0320 -1.0785
 4573SOL    HW215170   1.259   0.131   4.319  0.7112  0.8656 -0.5678
 4574SOL     OW15171   1.859   3.131   3.926  0.8788  0.3629  0.0396
 4574SOL    HW115172   1.874   3.196   3.995  1.3181 -0.2390  0.5247
 4574SOL    HW215173   1.945   3.093   3.911  0.5449 -0.4193  0.0759
 4575SOL     OW15174   5.628   4.835   0.817 -0.2121  0.0825 -0.5064
 4575SOL    HW115175   5.700   4.880   0.772 -0.3874  0.0006 -0.8737
 4575SOL    HW215176   5.584   4.904   0.867 -0.4302  0.3112 -1.0048
 4576SOL     OW15177   6.658   0.654   3.183 -0.3218 -0.0765 -0.4794
 4576SOL    HW115178   6.739   0.697   3.156  0.4126 -1.2689 -0.2515
 4576SOL    HW215179   6.644   0.684   3.273  0.6690 -0.9658 -0.0073
 4577SOL     OW15180   0.033   1.984   1.632  0.3398  0.6142 -0.0761
 4577SOL    HW115181   0.001   1.984   1.722  0.4513  0.0515 -0.0302
 4577SOL    HW215182   0.118   1.940   1.637  0.8767  1.6063 -0.2828
 4578SOL     OW15183   1.946   4.506   4.979 -0.7569 -0.0324  0.0877
 4578SOL    HW115184   1.902   4.443   5.037  1.1231 -1.9001 -0.3713
 4578SOL    HW215185   1.944   4.588   5.027 -0.7710 -1.1147  2.0746
 4579SOL     OW15186   0.659   4.417   2.812  0.4415  0.6159  0.1806
 4579SOL    HW115187   0.715   4.420   2.890 -0.0890  1.3160  0.5435
 4579SOL    HW215188   0.590   4.481   2.829 -1.6788 -1.6497  0.6574
 4580SOL     OW15189   4.942   1.917   3.493  0.5494  0.1714 -0.5088
 4580SOL    HW115190   4.867   1.904   3.551  0.0551  1.3849 -0.8481
 4580SOL    HW215191   4.988   1.993   3.530  0.8341  0.2897 -1.0931
 4581SOL     OW15192   4.545   3.243   3.608 -0.1402  0.0639 -0.0421
 4581SOL    HW115193   4.506   3.329   3.595 -1.3406 -0.4805 -0.1037
 4581SOL    HW215194   4.505   3.187   3.541  1.3342 -0.3413 -0.6371
 4582SOL     OW15195   5.132   3.702   2.389  0.3986  0.2258 -0.3334
 4582SOL    HW115196   5.051   3.665   2.423 -0.1291  0.4890 -1.2645
 4582SOL    HW215197   5.124   3.796   2.405  2.1676 -0.0577  2.9281
 4583SOL     OW15198   6.698   4.831   1.497  0.1724  0.4207  0.2314
 4583SOL    HW115199   6.661   4.847   1.584 -1.8927  1.9931 -0.8341
 4583SOL    HW215200   6.700   4.918   1.456  0.8357 -0.3178 -1.3896
 4584SOL     OW15201   7.013   6.105   3.156 -0.5714 -0.0822 -0.1313
 4584SOL    HW115202   7.033   6.086   3.064 -1.6218 -0.1021 -0.3713
 4584SOL    HW215203   7.011   6.019   3.198 -2.1919 -0.2827 -0.5541
 4585SOL     OW15204   0.371   1.065   6.508 -0.2580 -0.2433  0.3696
 4585SOL    HW115205   0.411   1.055   6.422  2.0432  0.0073  1.3566
 4585SOL    HW215206   0.391   1.155   6.534 -0.5563 -0.4497  1.3631
 4586SOL     OW15207   6.589   6.492   2.937 -0.6038  0.2656  0.3652
 4586SOL    HW115208   6.542   6.537   2.866  0.7072 -1.4367 -1.7171
 4586SOL    HW215209   6.638   6.561   2.981 -2.7466  1.6334  0.7416
 4587SOL     OW15210   6.264   6.387   4.530 -0.5854  0.5836 -0.0738
 4587SOL    HW115211   6.192   6.355   4.584 -0.3297  0.2214  0.0573
 4587SOL    HW215212   6.313   6.444   4.588  0.0929 -0.3591  0.3026
 4588SOL     OW15213   4.039   4.570   5.377  0.2986  0.7623 -0.0435
 4588SOL    HW115214   3.996   4.650   5.408  0.0863  0.4743  0.4207
 4588SOL    HW215215   4.128   4.598   5.354 -0.1118  1.3569 -0.9775
 4589SOL     OW15216   6.770   3.772   6.054 -0.1502 -0.4863  0.2874
 4589SOL    HW115217   6.747   3.838   6.119 -0.2715 -1.0296  0.8150
 4589SOL    HW215218   6.698   3.775   5.991  1.0823  1.6340 -1.1294
 4590SOL     OW15219   2.838   0.004   6.766 -0.2095  0.1620  0.3916
 4590SOL    HW115220   2.902   0.062   6.724  2.0005 -3.5947 -1.9439
 4590SOL    HW215221   2.857   0.011   6.860  1.5943  1.3644 -0.0162
 4591SOL     OW15222   7.052   1.742   4.665 -0.5294 -0.4293  0.3534
 4591SOL    HW115223   6.998   1.794   4.725  0.3226  0.1266  0.6612
 4591SOL    HW215224   7.133   1.726   4.713 -0.0986 -0.5595 -0.3959
 4592SOL     OW15225   0.426   7.108   4.489  0.1530  0.2428 -0.0281
 4592SOL    HW115226   0.416   7.062   4.406 -0.3867  1.5749 -0.7366
 4592SOL    HW215227   0.378   7.190   4.477  0.6703  0.7797  1.3502
 4593SOL     OW15228   5.597   4.857   3.643  0.0991 -0.2100 -0.1864
 4593SOL    HW115229   5.556   4.775   3.613 -1.3431 -0.1941  1.5396
 4593SOL    HW215230   5.555   4.925   3.589  0.6964 -0.5196 -1.0596
 4594SOL     OW15231   0.302   5.929   1.877  0.1794 -0.1920 -0.0382
 4594SOL    HW115232   0.338   6.011   1.844  0.4252 -0.1745  0.2707
 4594SOL    HW215233   0.379   5.877   1.902  0.0586 -0.7803 -0.8447
 4595SOL     OW15234   1.593   0.708   4.675  0.5401  0.4421  0.1108
 4595SOL    HW115235   1.626   0.676   4.591  1.9010 -0.2872  0.9014
 4595SOL    HW215236   1.663   0.690   4.738 -1.3743 -1.3376  1.9143
 4596SOL     OW15237   1.201   6.619   6.699 -0.4183 -0.0952 -0.4443
 4596SOL    HW115238   1.220   6.585   6.612  1.2843  0.1714 -0.2184
 4596SOL    HW215239   1.108   6.600   6.713 -0.5531 -0.7444 -2.0331
 4597SOL     OW15240   5.043   5.181   2.365 -0.2421  0.0664 -0.1742
 4597SOL    HW115241   4.962   5.156   2.410  0.0048  0.2908  0.4080
 4597SOL    HW215242   5.113   5.155   2.426  0.2414 -1.9990 -1.5127
 4598SOL     OW15243   2.992   2.861   0.526 -0.1330 -0.3030  0.0564
 4598SOL    HW115244   3.000   2.883   0.434  0.9125  2.7706  0.7678
 4598SOL    HW215245   3.081   2.866   0.560 -0.3623 -2.2827  1.1166
 4599SOL     OW15246   5.710   0.697   4.784 -0.0506  0.1619 -0.8614
 4599SOL    HW115247   5.665   0.613   4.781 -2.2984  1.3129 -1.4324
 4599SOL    HW215248   5.706   0.730   4.695 -0.9355  1.7053 -0.2829
 4600SOL     OW15249   5.401   4.796   5.878  0.2638  0.2383 -0.2545
 4600SOL    HW115250   5.487   4.818   5.841  0.3397  0.6948  0.1830
 4600SOL    HW215251   5.349   4.766   5.803  0.4496  1.0452 -0.7081
 4601SOL     OW15252   4.411   2.195   2.409 -0.2126 -0.0261 -0.0404
 4601SOL    HW115253   4.411   2.290   2.392 -1.4808 -0.1898 -1.1213
 4601SOL    HW215254   4.470   2.159   2.343  0.5312  0.0353  0.5846
 4602SOL     OW15255   4.636   5.685   6.786  0.4100 -0.0787  0.1587
 4602SOL    HW115256   4.626   5.626   6.860  0.7570 -1.4064 -0.8221
 4602SOL    HW215257   4.691   5.756   6.819  1.6753 -1.3157  0.8028
 4603SOL     OW15258   6.901   1.361   3.648 -0.0252 -0.2230 -0.3976
 4603SOL    HW115259   6.831   1.350   3.583  0.9128 -0.5218 -1.3909
 4603SOL    HW215260   6.941   1.446   3.626 -0.1399  0.0051  0.2413
 4604SOL     OW15261   0.861   3.357   0.406 -0.0140  0.0432 -0.2844
 4604SOL    HW115262   0.881   3.391   0.319  0.9573 -1.5389 -0.7231
 4604SOL    HW215263   0.946   3.355   0.451 -0.1370 -1.1420 -0.0673
 4605SOL     OW15264   5.942   0.570   3.746 -0.4832  0.2974 -0.1903
 4605SOL    HW115265   5.950   0.604   3.835  2.1095  0.4031 -0.3857
 4605SOL    HW215266   5.925   0.477   3.757  0.7285  0.1299  0.4759
 4606SOL     OW15267   0.243   4.106   4.019  0.0888 -0.0947  0.0082
 4606SOL    HW115268   0.268   4.022   3.981  0.7988  0.6227 -1.1435
 4606SOL    HW215269   0.183   4.145   3.955 -1.5163 -0.3825  1.2625
 4607SOL     OW15270   4.319   2.584   6.516 -0.5671  0.2610  0.1611
 4607SOL    HW115271   4.332   2.532   6.437  1.3073 -0.4126  0.8792
 4607SOL    HW215272   4.369   2.664   6.501 -3.0441  1.7517 -0.7348
 4608SOL     OW15273   6.185   6.859   6.755  0.4937 -0.2667  0.2239
 4608SOL    HW115274   6.208   6.801   6.682 -0.4545  0.2069 -0.4733
 4608SOL    HW215275   6.206   6.808   6.834  2.1884 -0.5299 -0.3488
 4609SOL     OW15276   5.688   0.937   2.218 -0.1609  0.1303 -0.0134
 4609SOL    HW115277   5.703   0.843   2.206 -1.1368 -0.4327  2.4733
 4609SOL    HW215278   5.698   0.951   2.312  0.8415  2.7353 -0.4224
 4610SOL     OW15279   1.287   3.010   1.935  0.0894  0.1222 -0.0072
 4610SOL    HW115280   1.361   3.040   1.882  0.6323 -1.2317 -0.0368
 4610SOL    HW215281   1.210   3.047   1.891  0.6986  1.1766 -0.2320
 4611SOL     OW15282   3.409   5.149   6.647  0.3998 -0.9978 -0.1510
 4611SOL    HW115283   3.494   5.104   6.649  1.0862  0.1369 -1.7072
 4611SOL    HW215284   3.408   5.193   6.562 -0.6584  1.0860  0.8764
 4612SOL     OW15285   2.784   3.041   0.252  0.0621 -0.4111  0.0191
 4612SOL    HW115286   2.720   3.076   0.189  1.0336  0.0757 -0.7213
 4612SOL    HW215287   2.735   2.974   0.300 -0.8350 -0.5053 -0.9691
 4613SOL     OW15288   3.469   2.974   2.755 -0.0749 -0.2378 -0.0712
 4613SOL    HW115289   3.529   3.048   2.765 -0.5163  0.4082 -1.8573
 4613SOL    HW215290   3.465   2.958   2.661 -1.9458 -0.9012  0.0733
 4614SOL     OW15291   3.661   4.081   0.446 -0.1092  0.3990 -0.8058
 4614SOL    HW115292   3.698   4.077   0.533 -1.5784  1.7242 -0.0657
 4614SOL    HW215293   3.695   4.162   0.408  1.3739 -0.6889 -1.9273
 4615SOL     OW15294   6.849   5.860   2.902 -0.2431  0.0699 -0.3554
 4615SOL    HW115295   6.943   5.853   2.884 -0.1606 -1.4250  0.4838
 4615SOL    HW215296   6.830   5.784   2.957 -1.9603  0.3312 -0.5448
 4616SOL     OW15297   3.401   7.016   3.362  0.0069  0.8200  0.7941
 4616SOL    HW115298   3.454   6.947   3.323 -1.6050  0.8551 -1.6360
 4616SOL    HW215299   3.452   7.096   3.349  0.3609  0.5614  0.5752
 4617SOL     OW15300   6.283   1.852   6.959 -0.0079 -0.0741 -0.3252
 4617SOL    HW115301   6.313   1.927   7.010  0.7181 -0.3838 -0.2854
 4617SOL    HW215302   6.211   1.886   6.906 -0.4663  0.3641  0.5546
 4618SOL     OW15303   2.038   3.433   0.725 -0.3185 -0.2351  0.3295
 4618SOL    HW115304   1.987   3.473   0.655 -1.0327 -0.2066  0.8530
 4618SOL    HW215305   2.024   3.339   0.715 -1.8924 -0.1593  1.4995
 4619SOL     OW15306   0.714   5.845   0.005 -0.4328 -0.1212  0.2175
 4619SOL    HW115307   0.703   5.758  -0.033 -2.1935 -0.8974  2.3051
 4619SOL    HW215308   0.649   5.900  -0.038 -1.5629 -0.6810  1.1788
 4620SOL     OW15309   6.369   0.966   2.743 -0.4953  0.1878  0.3035
 4620SOL    HW115310   6.318   0.892   2.711 -1.5693  0.9715  0.1420
 4620SOL    HW215311   6.451   0.962   2.694 -0.4046 -1.0673  0.5361
 4621SOL     OW15312   0.107   5.587   4.118 -0.1721 -0.4155 -0.0788
 4621SOL    HW115313   0.027   5.535   4.129 -0.0016 -0.6154  0.2678
 4621SOL    HW215314   0.140   5.562   4.032 -0.5125 -0.2866 -0.2499
 4622SOL     OW15315   0.042   3.053   3.248  0.7974 -0.0387 -0.2346
 4622SOL    HW115316   0.114   3.114   3.267  0.7693 -0.7691  2.8281
 4622SOL    HW215317   0.070   3.006   3.170  1.8311  2.3356 -1.3823
 4623SOL     OW15318   2.145   6.103   2.965 -0.4538  0.0994 -0.4975
 4623SOL    HW115319   2.210   6.075   3.030  0.7757  0.7642 -1.3960
 4623SOL    HW215320   2.151   6.039   2.895  0.9426  1.3928 -1.6408
 4624SOL     OW15321   0.229   6.958   5.256 -0.4193 -0.0983  0.3070
 4624SOL    HW115322   0.283   7.002   5.321 -0.5766  1.8079 -0.7715
 4624SOL    HW215323   0.287   6.894   5.214  0.5587  0.8121  0.2403
 4625SOL     OW15324   1.881   1.544   0.753  0.5558  0.0246 -0.0685
 4625SOL    HW115325   1.864   1.637   0.737  2.6455  0.8099  1.7006
 4625SOL    HW215326   1.869   1.534   0.848 -0.3378 -1.7009 -0.3296
 4626SOL     OW15327   5.264   3.937   2.137 -0.0675  0.1624  0.0465
 4626SOL    HW115328   5.237   3.980   2.219 -0.5165  0.4870 -0.2631
 4626SOL    HW215329   5.206   3.975   2.071 -2.2814 -2.7364  0.1226
 4627SOL     OW15330   1.343   3.772   1.815  0.4389  0.4260 -0.0473
 4627SOL    HW115331   1.411   3.818   1.766  1.2880 -0.1383  0.5810
 4627SOL    HW215332   1.376   3.768   1.905 -0.4953  0.2809  0.3045
 4628SOL     OW15333   5.372   1.584   1.596 -1.0055 -0.4858 -0.1765
 4628SOL    HW115334   5.410   1.661   1.552  0.8451 -0.6004  1.0827
 4628SOL    HW215335   5.441   1.556   1.656 -1.7580 -2.9716 -0.3920
 4629SOL     OW15336   1.540   3.715   3.861 -0.2467 -0.0514 -0.4656
 4629SOL    HW115337   1.543   3.780   3.791 -1.8606  1.1445  0.5236
 4629SOL    HW215338   1.459   3.666   3.846  0.0513 -0.6586 -0.1638
 4630SOL     OW15339   4.765   6.457   0.317 -0.3022 -0.2344  0.0355
 4630SOL    HW115340   4.776   6.548   0.291  0.5991 -0.2870  0.2072
 4630SOL    HW215341   4.834   6.441   0.381 -1.5140 -0.5505  1.3309
 4631SOL     OW15342   2.590   4.052   1.132 -0.0189 -0.4555 -0.4414
 4631SOL    HW115343   2.654   4.001   1.082  1.2326  0.1983  0.4600
 4631SOL    HW215344   2.584   4.008   1.217 -1.0681 -0.7239 -0.6327
 4632SOL     OW15345   2.124   0.993   3.786 -0.1874  0.6594 -0.2264
 4632SOL    HW115346   2.112   1.063   3.721  0.3694 -1.5200 -2.8663
 4632SOL    HW215347   2.194   0.939   3.750 -0.4428 -1.1509  1.8118
 4633SOL     OW15348   2.392   6.714   0.241  0.1673  0.5332  0.8910
 4633SOL    HW115349   2.306   6.713   0.199  0.1812  0.9633  0.8411
 4633SOL    HW215350   2.413   6.622   0.255  0.7268  0.2887 -1.1871
 4634SOL     OW15351   5.742   1.871   6.092 -0.4368  0.5371  0.0292
 4634SOL    HW115352   5.671   1.857   6.029  0.0989  1.0037 -0.6851
 4634SOL    HW215353   5.705   1.934   6.155 -0.8074  0.4330 -0.0799
 4635SOL     OW15354   2.194   6.330   1.025 -0.0948  0.0447 -0.0107
 4635SOL    HW115355   2.277   6.293   0.998 -0.2867  0.1535 -0.7648
 4635SOL    HW215356   2.211   6.423   1.037  0.0559 -0.0500  0.5223
 4636SOL     OW15357   5.402   2.545   3.476  0.4416 -0.3604  0.3620
 4636SOL    HW115358   5.425   2.542   3.569  1.1614 -0.1091  0.2002
 4636SOL    HW215359   5.380   2.637   3.460 -3.0002 -0.9216  1.0254
 4637SOL     OW15360   6.162   2.814   2.660  0.0438  0.3872  0.1558
 4637SOL    HW115361   6.121   2.901   2.665  1.2437  1.0625 -1.2518
 4637SOL    HW215362   6.237   2.826   2.603  2.3197 -0.7988  2.6914
 4638SOL     OW15363   2.439   6.871   5.455  0.0982  0.7817 -0.1357
 4638SOL    HW115364   2.379   6.869   5.530  1.6904 -0.4374  1.1815
 4638SOL    HW215365   2.450   6.964   5.436 -0.7719  1.0973  0.7963
 4639SOL     OW15366   0.762   1.950   5.925 -0.0155 -0.4594 -0.5693
 4639SOL    HW115367   0.836   2.010   5.931  0.8649 -1.5736  0.2211
 4639SOL    HW215368   0.686   2.001   5.952  0.7911  0.1703  0.5732
 4640SOL     OW15369   5.394   3.069   0.703  0.0391  0.0414 -0.1956
 4640SOL    HW115370   5.480   3.111   0.705 -0.6131  1.4525 -0.6740
 4640SOL    HW215371   5.411   2.979   0.732  1.7763  0.0827 -0.9582
 4641SOL     OW15372   0.862   4.488   6.117 -0.4290  0.0808 -0.1834
 4641SOL    HW115373   0.831   4.504   6.028  0.2661 -0.4400 -0.5289
 4641SOL    HW215374   0.840   4.396   6.134 -2.2061  0.6486  0.8793
 4642SOL     OW15375   6.668   3.136   1.544  0.0140  0.1286 -0.5530
 4642SOL    HW115376   6.604   3.184   1.492 -1.8394 -1.5723  0.0162
 4642SOL    HW215377   6.698   3.066   1.485  1.8681  1.2179 -1.0070
 4643SOL     OW15378   3.914   6.236   5.597  0.0976 -0.0379  0.0892
 4643SOL    HW115379   3.879   6.247   5.686 -0.9944  0.4745 -0.3931
 4643SOL    HW215380   4.008   6.221   5.611  0.2217  1.5852  1.2558
 4644SOL     OW15381   3.599   5.746   1.640  0.2323 -0.5108  0.0523
 4644SOL    HW115382   3.691   5.753   1.614  0.5730 -1.4498  0.9548
 4644SOL    HW215383   3.601   5.715   1.731 -0.9718 -0.0239  0.2785
 4645SOL     OW15384   5.278   2.280   6.504 -0.0721  0.3568  0.3709
 4645SOL    HW115385   5.230   2.315   6.579  0.5446 -0.7112  1.2956
 4645SOL    HW215386   5.215   2.283   6.432 -0.2485  2.6655  0.5568
 4646SOL     OW15387   3.176   4.278   7.060  0.4551  0.6880 -0.0510
 4646SOL    HW115388   3.137   4.195   7.034 -1.1677  1.5856 -0.6323
 4646SOL    HW215389   3.233   4.302   6.986  0.8049  0.1843  0.0502
 4647SOL     OW15390   5.480   6.986   3.963  0.0750  0.2042 -0.1559
 4647SOL    HW115391   5.465   6.896   3.935 -0.2033 -0.4022  1.7471
 4647SOL    HW215392   5.427   7.039   3.905 -1.8566 -1.0978  0.3318
 4648SOL     OW15393   1.137   3.886   4.759  0.2706 -0.2057  0.3629
 4648SOL    HW115394   1.206   3.880   4.825  0.5729  1.2671  0.2298
 4648SOL    HW215395   1.176   3.936   4.688 -0.1779 -1.4415 -0.7884
 4649SOL     OW15396   6.825   2.377   1.767 -0.0036  0.1700  0.1060
 4649SOL    HW115397   6.748   2.332   1.802  0.8120 -0.5634  1.0066
 4649SOL    HW215398   6.797   2.410   1.682 -1.1130 -0.6487  0.1348
 4650SOL     OW15399   0.213   2.161   5.207 -0.0143 -0.2104  0.2090
 4650SOL    HW115400   0.214   2.241   5.260  1.3218 -0.2343  0.2516
 4650SOL    HW215401   0.124   2.127   5.217  0.1137 -0.0651  2.2247
 4651SOL     OW15402   1.802   1.133   0.877  0.0238 -0.0326 -0.3993
 4651SOL    HW115403   1.749   1.086   0.812 -0.0548 -1.6599  0.7850
 4651SOL    HW215404   1.747   1.207   0.903  0.3340  1.0722 -2.6408
 4652SOL     OW15405   1.749   6.655   4.420  0.0303  0.0598 -0.2344
 4652SOL    HW115406   1.712   6.586   4.364 -0.0826 -0.1205  0.0627
 4652SOL    HW215407   1.692   6.657   4.497  1.2046 -0.8872  0.6795
 4653SOL     OW15408   0.399   5.548   6.811  0.2112 -0.1829 -0.0355
 4653SOL    HW115409   0.395   5.643   6.799 -3.0803 -0.2513 -0.4361
 4653SOL    HW215410   0.452   5.516   6.738 -0.0706  1.2499 -0.9061
 4654SOL     OW15411   3.800   3.221   4.987  0.1791 -0.1675 -0.2227
 4654SOL    HW115412   3.750   3.260   4.916 -0.3620 -0.4784 -0.0185
 4654SOL    HW215413   3.783   3.278   5.063  1.2213  0.5048 -0.4636
 4655SOL     OW15414   5.811   2.640   3.530  0.2293 -0.1727 -0.1494
 4655SOL    HW115415   5.745   2.701   3.497 -0.7104 -0.9380  0.2798
 4655SOL    HW215416   5.887   2.695   3.549  0.0051  0.6196 -1.3824
 4656SOL     OW15417   2.732   3.683   4.610 -0.2989  0.3892 -0.5075
 4656SOL    HW115418   2.706   3.618   4.545  0.6815 -1.0713  0.5087
 4656SOL    HW215419   2.727   3.767   4.563 -1.6336 -0.3702 -1.8403
 4657SOL     OW15420   1.240   3.496   2.999 -0.1875  0.3066 -0.2124
 4657SOL    HW115421   1.256   3.471   3.090  2.2328 -1.5932 -1.0495
 4657SOL    HW215422   1.257   3.417   2.948 -0.5716  1.5313 -2.3904
 4658SOL     OW15423   2.058   4.658   1.877 -0.1858  0.2192 -0.1286
 4658SOL    HW115424   2.108   4.738   1.861  0.7544 -0.4388 -0.6324
 4658SOL    HW215425   2.078   4.635   1.967  1.5136 -0.7238 -0.6914
 4659SOL     OW15426   0.537   4.884   5.022 -0.4909  0.3860  0.3865
 4659SOL    HW115427   0.483   4.958   4.995 -0.7336  0.2709  0.5484
 4659SOL    HW215428   0.625   4.920   5.031 -0.5567  0.5919  0.1949
 4660SOL     OW15429   5.297   3.440   5.806  0.2422  0.3501  0.3455
 4660SOL    HW115430   5.348   3.367   5.770  0.7854  1.8320 -2.1120
 4660SOL    HW215431   5.206   3.418   5.785  0.4060  0.3718 -0.4123
 4661SOL     OW15432   0.122   0.252   5.398  0.2896  0.2782 -0.5861
 4661SOL    HW115433   0.215   0.240   5.379  0.5633 -0.0206  0.7867
 4661SOL    HW215434   0.105   0.193   5.472 -0.4702  1.8536  0.5637
 4662SOL     OW15435   0.290   2.929   4.730  0.1749 -0.4492  0.3105
 4662SOL    HW115436   0.222   2.993   4.710 -1.3239 -1.7956  0.8876
 4662SOL    HW215437   0.356   2.979   4.779 -1.1469  0.5647  1.1297
 4663SOL     OW15438   3.259   1.843   0.229  0.0473 -0.5151 -0.4495
 4663SOL    HW115439   3.240   1.842   0.323  0.7044  1.5156 -0.2476
 4663SOL    HW215440   3.188   1.792   0.189 -1.4303  0.3428  0.9605
 4664SOL     OW15441   6.591   0.296   1.715  0.1707 -0.1806  0.0719
 4664SOL    HW115442   6.545   0.245   1.648  0.8020 -0.0674 -0.4673
 4664SOL    HW215443   6.677   0.255   1.720 -0.0768 -0.5662  1.2675
 4665SOL     OW15444   1.258   4.752   3.838  0.3964 -0.3964 -0.3688
 4665SOL    HW115445   1.224   4.720   3.754 -2.9148 -2.1019  1.4039
 4665SOL    HW215446   1.195   4.819   3.865  2.2383  1.2040  0.1757
 4666SOL     OW15447   0.216   2.061   3.058 -0.3919 -0.5661 -0.7394
 4666SOL    HW115448   0.174   2.088   3.139  0.4712  2.9964 -1.2814
 4666SOL    HW215449   0.291   2.009   3.085 -0.0830  0.6210  0.7959
 4667SOL     OW15450   5.895   1.481   2.126 -0.0018 -0.1347  0.5559
 4667SOL    HW115451   5.935   1.402   2.087  0.5962  0.1838  0.5154
 4667SOL    HW215452   5.970   1.535   2.152 -0.3872  1.0902 -0.7738
 4668SOL     OW15453   5.852   0.930   1.629 -0.0025 -0.2739 -1.3673
 4668SOL    HW115454   5.874   0.889   1.712 -0.1613 -0.2093 -1.2925
 4668SOL    HW215455   5.815   1.015   1.652  1.4195  0.4344 -1.5693
 4669SOL     OW15456   2.155   5.018   3.865  0.2063 -0.0211  0.7134
 4669SOL    HW115457   2.226   5.066   3.822  0.4246 -1.2493 -0.3398
 4669SOL    HW215458   2.098   5.086   3.900 -0.1059  1.0481 -1.7087
 4670SOL     OW15459   2.055   1.735   1.341  0.0099 -0.1154  0.2124
 4670SOL    HW115460   2.045   1.807   1.279  2.5101 -0.1795 -0.3928
 4670SOL    HW215461   2.048   1.656   1.287 -0.8422 -0.2731  0.5470
 4671SOL     OW15462   5.269   3.131   5.434  0.4172  0.2082  0.2875
 4671SOL    HW115463   5.182   3.165   5.412  0.7236 -0.6850 -2.9743
 4671SOL    HW215464   5.261   3.036   5.420  1.8772  0.1220 -0.0868
 4672SOL     OW15465   6.776   0.425   3.491  0.7639  0.2984  0.0549
 4672SOL    HW115466   6.798   0.393   3.404 -0.9680 -0.0099 -0.3186
 4672SOL    HW215467   6.798   0.518   3.489 -2.8037  1.3119 -2.1713
 4673SOL     OW15468   2.233   0.469   0.311  0.2827 -0.2690 -0.1396
 4673SOL    HW115469   2.275   0.384   0.299 -1.5260 -1.1471 -0.5938
 4673SOL    HW215470   2.160   0.452   0.370  0.4984  1.1992  0.6050
 4674SOL     OW15471   6.292   4.293   5.797  0.4872 -0.1027 -0.0080
 4674SOL    HW115472   6.309   4.271   5.705 -3.3901 -0.8055 -0.7351
 4674SOL    HW215473   6.336   4.225   5.847  0.6757 -1.1097 -1.4769
 4675SOL     OW15474   5.611   2.637   3.121  0.6534 -0.5165  0.0596
 4675SOL    HW115475   5.685   2.697   3.132  0.6328 -0.6080  0.7145
 4675SOL    HW215476   5.620   2.606   3.031 -0.6556  2.1986 -1.1213
 4676SOL     OW15477   0.627   6.284   4.152  0.4628 -0.3762 -0.0574
 4676SOL    HW115478   0.635   6.379   4.155  0.4862 -0.4045  2.0139
 4676SOL    HW215479   0.549   6.265   4.204  0.8505 -1.5140  0.1404
 4677SOL     OW15480   1.586   2.516   0.123 -0.5630 -0.0805 -0.3980
 4677SOL    HW115481   1.503   2.540   0.164  1.0492  1.7299  2.1331
 4677SOL    HW215482   1.628   2.457   0.186  0.8786  0.6031 -0.6826
 4678SOL     OW15483   2.610   6.680   4.548 -0.5501  0.4301 -0.5448
 4678SOL    HW115484   2.539   6.661   4.487 -0.4907 -0.0478 -0.4719
 4678SOL    HW215485   2.650   6.760   4.515 -1.3796  0.9332 -0.3569
 4679SOL     OW15486   3.142   2.290   5.250  0.0976  0.9056  0.7053
 4679SOL    HW115487   3.102   2.377   5.248  0.3028  1.0065 -1.8640
 4679SOL    HW215488   3.076   2.233   5.210  1.0245  0.3758 -0.0770
 4680SOL     OW15489   2.266   3.900   0.704 -0.8038  0.3198  0.2819
 4680SOL    HW115490   2.279   3.882   0.797 -1.0254 -1.4803  0.0110
 4680SOL    HW215491   2.180   3.942   0.699 -0.7664  0.4718  0.8939
 4681SOL     OW15492   1.751   4.516   6.906  0.3493 -0.1675  0.5055
 4681SOL    HW115493   1.702   4.486   6.983 -1.5692  0.0715 -0.5335
 4681SOL    HW215494   1.701   4.593   6.876  2.4886  1.2710  0.4341
 4682SOL     OW15495   3.872   7.124   0.215 -0.2730 -0.4406  0.0767
 4682SOL    HW115496   3.964   7.115   0.239 -0.4954  0.3544  1.3021
 4682SOL    HW215497   3.850   7.041   0.173  0.7643 -0.9856  0.5718
 4683SOL     OW15498   1.888   1.629   6.403  0.3432 -0.7178  0.2497
 4683SOL    HW115499   1.830   1.658   6.333  0.3470  1.9391  1.2401
 4683SOL    HW215500   1.968   1.602   6.358  0.1387  0.3728 -0.8224
 4684SOL     OW15501   5.124   4.458   3.464  0.2035 -0.6216 -0.7526
 4684SOL    HW115502   5.041   4.423   3.431  0.4784 -1.2580 -0.8027
 4684SOL    HW215503   5.190   4.414   3.410  0.5977 -0.6160 -0.2784
 4685SOL     OW15504   1.263   0.874   3.226  0.0349 -0.0674  0.8988
 4685SOL    HW115505   1.349   0.863   3.268  0.0666 -0.8119  0.6568
 4685SOL    HW215506   1.201   0.839   3.291  0.0670 -1.0442  0.4221
 4686SOL     OW15507   6.932   0.620   3.586  0.9027 -0.0749 -0.1062
 4686SOL    HW115508   7.013   0.631   3.635  0.7154 -1.3259  0.5219
 4686SOL    HW215509   6.918   0.705   3.544  0.6858  1.3142  2.5659
 4687SOL     OW15510   6.895   0.848   3.432  0.5390 -0.3785  0.0163
 4687SOL    HW115511   6.977   0.886   3.464  0.0976  0.2893  0.3505
 4687SOL    HW215512   6.911   0.834   3.338  0.2591  1.8635 -0.4113
 4688SOL     OW15513   0.709   2.457   1.383 -0.0992  0.2400 -0.5020
 4688SOL    HW115514   0.732   2.538   1.429 -0.0008  0.0923 -0.2873
 4688SOL    HW215515   0.634   2.480   1.329  0.1472  0.5616 -0.7077
 4689SOL     OW15516   1.995   6.055   3.280 -0.2431 -0.0533  0.6741
 4689SOL    HW115517   1.954   6.125   3.331  0.8581  0.0889  1.3995
 4689SOL    HW215518   2.064   6.099   3.229 -0.2492 -0.4470  0.3197
 4690SOL     OW15519   5.662   0.729   3.725  0.4516  0.0995  0.5249
 4690SOL    HW115520   5.672   0.675   3.803 -0.7531 -0.5602  0.2402
 4690SOL    HW215521   5.589   0.690   3.677 -0.7152  2.1696  0.4951
 4691SOL     OW15522   1.882   1.844   4.463 -0.0159 -0.0746  0.7785
 4691SOL    HW115523   1.970   1.874   4.441  0.7766 -2.4286  0.4482
 4691SOL    HW215524   1.857   1.789   4.389 -2.0762  1.0801  0.5576
 4692SOL     OW15525   2.040   5.775   6.359  0.2891 -0.1235 -0.3961
 4692SOL    HW115526   2.057   5.869   6.373  0.9001 -0.2801 -0.0194
 4692SOL    HW215527   2.112   5.747   6.302  0.9595 -0.6662  0.6773
 4693SOL     OW15528   0.627   5.286   3.974 -0.3056 -0.3538  0.2323
 4693SOL    HW115529   0.546   5.271   3.927  0.7994 -0.2448 -1.8154
 4693SOL    HW215530   0.643   5.205   4.022 -0.4569 -1.2558 -1.1947
 4694SOL     OW15531   5.447   3.869   4.679 -0.7451  0.4223 -0.0276
 4694SOL    HW115532   5.470   3.921   4.602 -0.4315 -1.1767 -1.0396
 4694SOL    HW215533   5.529   3.828   4.706 -1.6746 -3.1891 -2.0506
 4695SOL     OW15534   5.673   5.327   0.614 -0.3363  0.1098  0.1256
 4695SOL    HW115535   5.679   5.289   0.702  0.1989 -0.1636 -0.0236
 4695SOL    HW215536   5.761   5.315   0.577 -0.0479  1.7652  0.1968
 4696SOL     OW15537   3.731   6.812   6.929  0.2322 -0.5765  0.2159
 4696SOL    HW115538   3.812   6.787   6.974  0.5847 -0.2355 -0.2132
 4696SOL    HW215539   3.683   6.731   6.919  1.2950 -1.0890 -1.0442
 4697SOL     OW15540   2.055   7.139   6.519  0.2867  0.1822  0.3220
 4697SOL    HW115541   1.998   7.140   6.442  0.8536  0.8536 -0.1035
 4697SOL    HW215542   2.136   7.097   6.488  0.2031 -0.3286  0.7877
 4698SOL     OW15543   3.747   5.249   6.111 -0.6378 -0.2134 -0.2363
 4698SOL    HW115544   3.824   5.260   6.055 -0.2056 -0.2022  0.3519
 4698SOL    HW215545   3.673   5.272   6.054 -0.2007 -0.0697 -0.7618
 4699SOL     OW15546   1.508   4.482   1.507  0.2200  0.8886  0.5279
 4699SOL    HW115547   1.543   4.441   1.428 -0.2441 -1.9710  1.6675
 4699SOL    HW215548   1.423   4.439   1.521 -0.4096  2.4380  1.7427
 4700SOL     OW15549   0.331   1.953   3.811  0.0845 -0.1488  0.1142
 4700SOL    HW115550   0.290   1.941   3.897  0.2619 -2.6179 -0.0504
 4700SOL    HW215551   0.417   1.912   3.821  1.9697  3.3687 -0.0406
 4701SOL     OW15552   0.696   5.300   6.176  0.7922 -0.4125 -0.0734
 4701SOL    HW115553   0.617   5.333   6.134  1.5483  0.1966 -1.0593
 4701SOL    HW215554   0.682   5.206   6.183  0.4753 -0.4770 -1.3380
 4702SOL     OW15555   6.304   5.281   5.562 -0.4846 -0.6676  0.0514
 4702SOL    HW115556   6.392   5.307   5.590 -0.6040  1.7117 -1.5123
 4702SOL    HW215557   6.245   5.327   5.623 -0.6615  1.2459 -1.4761
 4703SOL     OW15558   4.594   3.904   4.507 -0.4790  0.5045  0.2833
 4703SOL    HW115559   4.505   3.917   4.474 -1.1834  0.4462  2.0522
 4703SOL    HW215560   4.587   3.919   4.601  1.4459  0.7294  0.4305
 4704SOL     OW15561   5.285   4.363   3.263  0.1213 -0.3242  0.2170
 4704SOL    HW115562   5.291   4.382   3.169 -1.8470  0.8195  0.2782
 4704SOL    HW215563   5.369   4.390   3.298 -0.2225  2.2538 -0.7540
 4705SOL     OW15564   6.550   5.272   0.798  0.8492  0.2358  0.4038
 4705SOL    HW115565   6.591   5.355   0.775 -1.3135  2.3054  3.3742
 4705SOL    HW215566   6.572   5.258   0.890 -0.8074 -1.2280  0.6330
 4706SOL     OW15567   2.788   3.127   1.555  0.1484  0.0180  0.5048
 4706SOL    HW115568   2.704   3.143   1.597  1.0349  1.5762  1.8118
 4706SOL    HW215569   2.777   3.160   1.466 -0.0177  2.3355  1.3087
 4707SOL     OW15570   4.981   4.018   7.091 -0.4562  0.3972  0.4473
 4707SOL    HW115571   4.904   4.036   7.038  0.2858 -0.4960 -1.0015
 4707SOL    HW215572   4.998   4.100   7.138 -2.3203  0.5733  0.8784
 4708SOL     OW15573   3.226   1.802   6.658  0.4048  0.3966 -0.3257
 4708SOL    HW115574   3.260   1.764   6.577  1.3520 -0.3090  0.3873
 4708SOL    HW215575   3.303   1.836   6.704  0.1671 -0.9221  1.1514
 4709SOL     OW15576   2.830   7.068   3.716 -0.2977  0.1502 -0.0421
 4709SOL    HW115577   2.834   6.976   3.742  0.5847  0.2855  0.3334
 4709SOL    HW215578   2.910   7.083   3.666 -0.6702  0.5968 -0.5295
 4710SOL     OW15579   2.190   2.104   2.563 -0.1088 -0.0616 -0.0915
 4710SOL    HW115580   2.279   2.110   2.530 -0.9438  0.7444 -2.3562
 4710SOL    HW215581   2.201   2.087   2.657  2.3969  0.0438 -0.2905
 4711SOL     OW15582   6.106   4.715   3.896  0.3752 -0.7054 -0.1232
 4711SOL    HW115583   6.090   4.740   3.987 -0.7551 -2.0260  0.0741
 4711SOL    HW215584   6.065   4.785   3.844  1.9009  0.5862  0.3280
 4712SOL     OW15585   4.336   0.648   3.279  0.2825 -0.2788 -0.2953
 4712SOL    HW115586   4.285   0.567   3.271 -0.1789  0.0456 -0.7470
 4712SOL    HW215587   4.345   0.679   3.189 -1.1999  1.1649 -0.0110
 4713SOL     OW15588   3.443   0.676   2.708 -0.7838  0.4507  0.5548
 4713SOL    HW115589   3.408   0.643   2.626 -0.8856  2.2866 -0.1867
 4713SOL    HW215590   3.471   0.598   2.756 -0.7424 -0.6522 -1.1965
 4714SOL     OW15591   2.638   6.677   3.901 -0.1515 -0.1207  0.7619
 4714SOL    HW115592   2.626   6.681   3.996 -1.2306  0.5021  0.6183
 4714SOL    HW215593   2.591   6.599   3.873 -0.2281 -0.0477  0.6858
 4715SOL     OW15594   0.703   6.425   6.611  0.0228  0.2077 -0.4475
 4715SOL    HW115595   0.739   6.343   6.644  0.4123  1.0298  1.3481
 4715SOL    HW215596   0.655   6.401   6.532  2.1187 -1.3572 -1.3275
 4716SOL     OW15597   6.471   0.939   1.769 -0.1072 -0.4002  0.1223
 4716SOL    HW115598   6.514   1.023   1.753  0.3355 -0.5289  0.6210
 4716SOL    HW215599   6.415   0.954   1.845 -1.6346  0.0006 -1.0230
 4717SOL     OW15600   6.921   1.769   1.578 -0.3866 -0.4259 -0.5162
 4717SOL    HW115601   6.876   1.764   1.494  0.3380 -1.2549 -0.8757
 4717SOL    HW215602   7.013   1.782   1.556 -0.3732  0.8503  0.1968
 4718SOL     OW15603   1.933   4.459   0.572  0.1519  0.0914  1.0635
 4718SOL    HW115604   1.893   4.471   0.658  0.4004 -0.0713  1.2000
 4718SOL    HW215605   1.858   4.451   0.513 -0.0210 -0.0458  1.2971
 4719SOL     OW15606   2.053   3.599   4.464 -0.0444 -0.2160  0.6902
 4719SOL    HW115607   2.031   3.509   4.489  0.6314  0.1738  2.8401
 4719SOL    HW215608   2.119   3.626   4.527 -0.5369  1.9524  0.3341
 4720SOL     OW15609   5.891   2.572   0.217  0.1162  0.0793 -0.0265
 4720SOL    HW115610   5.833   2.610   0.152 -0.6134 -1.7332 -0.5114
 4720SOL    HW215611   5.832   2.542   0.287  0.9790  3.3652  2.3338
 4721SOL     OW15612   2.392   2.932   2.572  0.3930 -0.4788 -0.4276
 4721SOL    HW115613   2.396   2.967   2.483 -1.2715 -1.1680 -0.8056
 4721SOL    HW215614   2.300   2.942   2.598  0.6766 -1.0667  0.9014
 4722SOL     OW15615   0.602   2.762   4.520 -0.1833 -0.5225  0.5006
 4722SOL    HW115616   0.646   2.699   4.463  0.6245  1.1281 -0.7908
 4722SOL    HW215617   0.632   2.847   4.489 -3.6446  0.7060  0.0724
 4723SOL     OW15618   3.428   1.630   5.121 -0.4070  0.9014  0.6635
 4723SOL    HW115619   3.516   1.636   5.160 -0.4011  1.0680  0.6227
 4723SOL    HW215620   3.398   1.542   5.144  1.4171 -0.8329 -2.8037
 4724SOL     OW15621   3.875   6.763   5.022 -0.2339 -0.2460 -0.2422
 4724SOL    HW115622   3.917   6.808   4.948  1.8201  0.3860  1.2425
 4724SOL    HW215623   3.805   6.822   5.049  1.3386  1.3091  0.5909
 4725SOL     OW15624   0.405   4.434   3.229  0.6988  0.2182  0.5441
 4725SOL    HW115625   0.340   4.444   3.299  0.2635  0.6626  0.0855
 4725SOL    HW215626   0.380   4.352   3.186 -0.5207  1.1404 -0.5911
 4726SOL     OW15627   4.558   0.270   3.832  0.0837  0.1741 -0.5935
 4726SOL    HW115628   4.589   0.336   3.770 -0.5888  0.8521 -0.2154
 4726SOL    HW215629   4.533   0.195   3.777 -1.2241  1.0472 -1.2310
 4727SOL     OW15630   1.047   6.114   3.979  0.0791  0.0073 -0.4455
 4727SOL    HW115631   0.957   6.145   3.967 -0.1743 -0.6250 -0.2032
 4727SOL    HW215632   1.046   6.024   3.945 -0.0655 -1.0010  2.0749
 4728SOL     OW15633   3.213   6.665   0.896  0.0541 -0.5404 -0.1823
 4728SOL    HW115634   3.286   6.722   0.921  0.4493 -1.2416  0.2969
 4728SOL    HW215635   3.254   6.593   0.848 -0.4409 -0.4344 -0.7702
 4729SOL     OW15636   0.434   2.253   1.855  0.1474 -0.0618  0.3459
 4729SOL    HW115637   0.472   2.168   1.832  1.8942  0.7682  0.0168
 4729SOL    HW215638   0.358   2.231   1.909  0.3853 -1.8318  0.0280
 4730SOL     OW15639   7.085   3.848   3.371 -0.4628 -0.5443  0.3133
 4730SOL    HW115640   7.091   3.909   3.445  0.5922  1.0730 -1.0039
 4730SOL    HW215641   7.169   3.802   3.372  0.6260  1.2329 -1.2021
 4731SOL     OW15642   1.665   0.192   6.269 -0.3232  0.2771 -0.3678
 4731SOL    HW115643   1.723   0.131   6.314 -1.3594 -1.5465 -1.3833
 4731SOL    HW215644   1.677   0.174   6.176 -0.9393  1.3590 -0.6811
 4732SOL     OW15645   3.372   0.875   6.350  0.7654 -0.1890  0.5817
 4732SOL    HW115646   3.348   0.961   6.315 -1.3970 -1.2829 -0.8214
 4732SOL    HW215647   3.466   0.882   6.367  1.1073  1.7367 -1.5858
 4733SOL     OW15648   1.656   0.356   4.273  0.1210 -0.4236  0.1229
 4733SOL    HW115649   1.588   0.323   4.213  0.5988 -0.9714 -0.1201
 4733SOL    HW215650   1.723   0.393   4.216  0.2364 -0.2789  0.3495
 4734SOL     OW15651   2.319   1.870   0.276 -0.4767 -0.2060 -0.4499
 4734SOL    HW115652   2.270   1.943   0.238  1.2416  0.5874 -1.2408
 4734SOL    HW215653   2.315   1.887   0.370  0.1620  1.1191 -0.6301
 4735SOL     OW15654   0.252   1.404   4.219  0.2087 -0.3024 -0.1815
 4735SOL    HW115655   0.190   1.345   4.263  1.1476 -1.6773 -0.6118
 4735SOL    HW215656   0.198   1.474   4.183 -0.8250 -0.2487  1.3521
 4736SOL     OW15657   3.955   5.278   7.068  0.3182 -0.4027  0.2266
 4736SOL    HW115658   3.999   5.288   6.984 -0.3960  1.7354  0.0465
 4736SOL    HW215659   3.896   5.204   7.056  1.6381 -1.3942 -0.4656
 4737SOL     OW15660   3.728   6.100   4.072  0.6618  0.0645 -0.3537
 4737SOL    HW115661   3.764   6.097   3.984  0.1712  0.3345 -0.5637
 4737SOL    HW215662   3.633   6.106   4.060  0.6984  2.6155  0.1450
 4738SOL     OW15663   2.772   2.266   1.690 -0.6347  0.2703 -0.0035
 4738SOL    HW115664   2.834   2.337   1.672 -0.6903  0.8038  1.7213
 4738SOL    HW215665   2.711   2.304   1.754 -2.2579 -0.5085 -1.0327
 4739SOL     OW15666   4.470   2.993   2.144  0.4323 -0.3203 -0.1207
 4739SOL    HW115667   4.438   3.014   2.232  0.8121  0.6016 -0.1972
 4739SOL    HW215668   4.447   2.901   2.132 -0.6136 -0.1559  0.5116
 4740SOL     OW15669   4.468   3.696   1.796  0.1386  0.4033 -0.1491
 4740SOL    HW115670   4.491   3.689   1.703 -1.7173 -1.0802 -0.5466
 4740SOL    HW215671   4.529   3.637   1.840  0.1623  0.0814 -0.6047
 4741SOL     OW15672   4.937   6.892   4.648  0.1321  0.0701  0.5827
 4741SOL    HW115673   5.031   6.900   4.635  0.2173 -1.9218 -0.2979
 4741SOL    HW215674   4.916   6.802   4.622 -2.1143  0.6587  0.1153
 4742SOL     OW15675   6.757   0.357   0.350  0.0367  0.3203 -0.2316
 4742SOL    HW115676   6.806   0.317   0.422  1.2000  0.9113 -0.6711
 4742SOL    HW215677   6.691   0.411   0.393 -0.3938 -0.6396  0.3706
 4743SOL     OW15678   3.321   4.546   1.141 -0.0933 -0.6303  0.1178
 4743SOL    HW115679   3.226   4.537   1.151 -0.2056 -0.2867 -0.5887
 4743SOL    HW215680   3.333   4.581   1.053  0.6883 -0.5755  0.2366
 4744SOL     OW15681   5.946   1.164   6.553  0.0979  0.0893  0.1987
 4744SOL    HW115682   6.039   1.153   6.576 -0.5077 -1.3514  2.2703
 4744SOL    HW215683   5.902   1.174   6.637 -1.5918  1.4333 -0.7922
 4745SOL     OW15684   0.785   5.423   6.915  0.6964 -0.1725  0.3003
 4745SOL    HW115685   0.740   5.367   6.853 -0.4737  1.1795 -0.1156
 4745SOL    HW215686   0.868   5.445   6.872  0.9612 -1.1692  0.2754
 4746SOL     OW15687   0.541   0.324   5.765 -0.3664 -0.0401 -1.4803
 4746SOL    HW115688   0.463   0.377   5.747 -1.3819 -0.7331  0.5892
 4746SOL    HW215689   0.506   0.239   5.792  0.9531  0.3495  1.8461
 4747SOL     OW15690   7.122   1.150   3.602  0.0025  0.6361 -0.3408
 4747SOL    HW115691   7.030   1.171   3.617  0.0713 -0.1808  1.4780
 4747SOL    HW215692   7.171   1.211   3.656  0.3148 -1.6951  2.2151
 4748SOL     OW15693   6.470   6.172   1.421 -0.3125 -0.7285  0.5277
 4748SOL    HW115694   6.391   6.142   1.466 -0.0432 -2.3848 -0.0354
 4748SOL    HW215695   6.504   6.094   1.377  1.0860  0.1757 -0.0764
 4749SOL     OW15696   6.652   4.970   3.456 -0.1879  0.1847 -0.4201
 4749SOL    HW115697   6.557   4.973   3.465 -0.3437 -0.7397 -1.5270
 4749SOL    HW215698   6.685   4.987   3.544 -1.3562  1.2038 -0.1504
 4750SOL     OW15699   0.487   1.463   6.871 -0.1277 -0.1504  0.6396
 4750SOL    HW115700   0.529   1.414   6.800  0.0726 -1.2741  1.4974
 4750SOL    HW215701   0.460   1.396   6.934 -1.0690  0.7494  1.2363
 4751SOL     OW15702   6.714   3.373   5.505 -0.2537 -0.7332 -0.2393
 4751SOL    HW115703   6.654   3.299   5.515 -0.1484 -0.7902 -0.0266
 4751SOL    HW215704   6.786   3.338   5.451  0.4393 -1.1677  0.9398
 4752SOL     OW15705   3.219   2.302   6.196 -0.7145 -0.0504  0.2278
 4752SOL    HW115706   3.298   2.261   6.162 -0.6173  0.3381 -0.0102
 4752SOL    HW215707   3.187   2.240   6.262 -1.5274 -1.3501 -1.3235
 4753SOL     OW15708   6.368   3.585   0.203 -0.4648 -0.2011  0.0316
 4753SOL    HW115709   6.280   3.621   0.215 -0.3107  0.3645 -0.4934
 4753SOL    HW215710   6.424   3.637   0.260  0.2628  2.4674 -2.8504
 4754SOL     OW15711   6.088   4.437   2.716  0.3451 -0.0845 -0.5263
 4754SOL    HW115712   6.094   4.526   2.680 -1.2733  0.1525 -0.2899
 4754SOL    HW215713   6.087   4.449   2.811  1.7553 -0.4956 -0.4434
 4755SOL     OW15714   2.326   3.328   1.164  0.2814  0.0505  0.4523
 4755SOL    HW115715   2.380   3.254   1.134 -2.4780 -1.8561 -0.1399
 4755SOL    HW215716   2.275   3.292   1.237 -2.7245  0.5867 -1.2393
 4756SOL     OW15717   4.749   4.132   0.240 -0.3460 -0.0822  0.1688
 4756SOL    HW115718   4.759   4.093   0.327  0.0345  0.1051  0.2094
 4756SOL    HW215719   4.677   4.195   0.250  0.2201  0.5243  0.5586
 4757SOL     OW15720   2.030   0.763   5.516 -0.1257  0.3096 -0.0828
 4757SOL    HW115721   2.033   0.857   5.531  0.1556  1.0148 -3.7376
 4757SOL    HW215722   1.938   0.740   5.525 -0.4971  1.3388 -1.0486
 4758SOL     OW15723   4.239   4.989   2.702  0.4415  0.5084  0.3851
 4758SOL    HW115724   4.192   4.985   2.620 -1.2304  0.7197  1.2914
 4758SOL    HW215725   4.272   5.079   2.706  0.7574  0.4225 -0.1465
 4759SOL     OW15726   4.783   5.347   6.539  0.0341 -0.0641  0.0278
 4759SOL    HW115727   4.803   5.263   6.498 -1.8095 -0.2404 -0.6019
 4759SOL    HW215728   4.753   5.324   6.627  0.7566  0.0526  0.3120
 4760SOL     OW15729   1.069   1.519   0.858  0.1585  0.1313 -0.1038
 4760SOL    HW115730   1.079   1.557   0.771  0.9414 -2.0895 -1.0598
 4760SOL    HW215731   1.138   1.560   0.910  1.1969 -0.1954 -1.1803
 4761SOL     OW15732   4.273   0.887   3.886 -0.4100 -0.4084 -0.2549
 4761SOL    HW115733   4.189   0.850   3.912 -0.5578  0.9040  1.1963
 4761SOL    HW215734   4.333   0.864   3.957  0.2202 -0.4306 -0.7801
 4762SOL     OW15735   1.962   5.843   2.142  0.2147 -0.1098  0.1042
 4762SOL    HW115736   1.889   5.796   2.102 -0.0900 -0.9607  1.5623
 4762SOL    HW215737   2.023   5.775   2.171  1.1982  0.5504 -0.3528
 4763SOL     OW15738   1.480   5.777   5.486  0.1457 -0.5893 -0.2381
 4763SOL    HW115739   1.531   5.768   5.566  1.4620 -0.3975 -1.0315
 4763SOL    HW215740   1.431   5.695   5.479  0.7374 -0.9906  0.2805
 4764SOL     OW15741   4.756   2.888   4.435  0.6718 -0.0053  0.2619
 4764SOL    HW115742   4.755   2.956   4.502 -1.6065 -2.0342  2.4978
 4764SOL    HW215743   4.767   2.806   4.484  1.2771 -1.4277 -2.1050
 4765SOL     OW15744   6.457   1.718   1.737  0.1310  0.5594  1.0166
 4765SOL    HW115745   6.521   1.784   1.711 -0.6709  1.0906  0.2864
 4765SOL    HW215746   6.444   1.665   1.658  1.2285 -0.9056  1.7681
 4766SOL     OW15747   4.009   3.527   6.782  0.4461 -0.1003  0.5892
 4766SOL    HW115748   4.029   3.443   6.823 -1.0034 -0.8713 -0.2041
 4766SOL    HW215749   3.985   3.585   6.854  0.2673 -0.7281  1.0341
 4767SOL     OW15750   5.663   0.466   4.251 -0.2947 -0.3913 -0.0958
 4767SOL    HW115751   5.661   0.561   4.258 -2.3422 -0.4298  0.2626
 4767SOL    HW215752   5.576   0.438   4.277  0.6584 -2.4779  1.1234
 4768SOL     OW15753   5.897   1.684   1.556  0.0623  0.4977  0.2458
 4768SOL    HW115754   5.983   1.710   1.522  0.5538 -1.1689  0.1043
 4768SOL    HW215755   5.911   1.676   1.651  0.2197 -0.2576  0.1668
 4769SOL     OW15756   6.417   5.177   1.532  0.1827  0.5522 -0.1641
 4769SOL    HW115757   6.416   5.115   1.606 -0.8929  0.3126 -0.3618
 4769SOL    HW215758   6.369   5.253   1.564  2.1122  1.6504  0.3315
 4770SOL     OW15759   2.506   3.616   3.425 -0.5026 -0.2636  0.0219
 4770SOL    HW115760   2.419   3.576   3.421 -0.0929 -1.1177 -0.8828
 4770SOL    HW215761   2.521   3.649   3.337 -0.2764  0.7102  0.4178
 4771SOL     OW15762   2.753   4.954   2.294  0.6642  0.1936  0.2051
 4771SOL    HW115763   2.662   4.925   2.309 -0.3623  3.0709  0.1260
 4771SOL    HW215764   2.777   4.914   2.211 -1.1196  0.5655 -0.5372
 4772SOL     OW15765   1.584   1.314   5.289 -0.2092 -0.6636 -0.1123
 4772SOL    HW115766   1.585   1.362   5.372 -0.8343  0.9562 -0.9858
 4772SOL    HW215767   1.496   1.276   5.284 -0.0444 -1.0873  0.1235
 4773SOL     OW15768   7.036   3.353   1.883 -0.2864 -0.0506  0.1655
 4773SOL    HW115769   6.974   3.417   1.848  0.7766  0.0675 -1.6038
 4773SOL    HW215770   7.099   3.405   1.933  0.7588  0.4113 -1.5261
 4774SOL     OW15771   1.049   3.266   3.254  0.0994  0.4046 -0.1695
 4774SOL    HW115772   1.046   3.219   3.337  2.1159 -0.6031 -0.6063
 4774SOL    HW215773   1.140   3.292   3.244 -0.1698  0.8272 -1.9115
 4775SOL     OW15774   6.958   1.011   5.237  0.1738  0.2863 -0.4856
 4775SOL    HW115775   6.896   0.945   5.267 -0.2091  1.2476  0.9529
 4775SOL    HW215776   7.012   0.966   5.172 -0.0108 -1.4593  0.5034
 4776SOL     OW15777   1.204   5.084   3.047 -0.2890 -0.2566  0.5293
 4776SOL    HW115778   1.260   5.158   3.071  1.6110 -1.3376 -0.3124
 4776SOL    HW215779   1.192   5.094   2.953 -0.6528 -0.6031  0.5408
 4777SOL     OW15780   5.086   6.930   6.014 -0.3311  0.0909 -0.3141
 4777SOL    HW115781   5.173   6.890   6.022 -0.7556 -0.6075  1.1893
 4777SOL    HW215782   5.063   6.918   5.922  0.4474 -1.2745 -0.3730
 4778SOL     OW15783   0.959   6.186   0.373 -0.2566  0.3476  0.2369
 4778SOL    HW115784   0.890   6.233   0.419 -0.2488  2.7366 -1.9538
 4778SOL    HW215785   0.913   6.131   0.310 -0.2473  1.9847 -1.2642
 4779SOL     OW15786   1.204   2.461   6.573 -0.0519  0.0069 -0.0649
 4779SOL    HW115787   1.230   2.484   6.662  0.3162 -1.1103  0.1333
 4779SOL    HW215788   1.275   2.494   6.518 -0.1769  0.5078  0.0669
 4780SOL     OW15789   5.541   3.325   2.109 -0.0531 -0.3253 -0.5284
 4780SOL    HW115790   5.538   3.420   2.098 -1.6857 -0.2255  0.3627
 4780SOL    HW215791   5.462   3.294   2.065 -0.8250 -0.9831  1.2183
 4781SOL     OW15792   0.929   1.396   3.234  0.4802 -0.4601 -0.3178
 4781SOL    HW115793   0.868   1.342   3.284 -1.7691  1.7627 -0.4898
 4781SOL    HW215794   1.010   1.394   3.285 -0.6780 -0.9956  1.5961
 4782SOL     OW15795   6.657   6.531   0.796 -0.4109 -0.1493 -0.4613
 4782SOL    HW115796   6.707   6.458   0.759  1.6081  1.1392 -0.4381
 4782SOL    HW215797   6.702   6.609   0.765 -1.0543  1.0528  1.4250
 4783SOL     OW15798   3.443   2.525   4.100 -0.0148 -0.2798  0.4806
 4783SOL    HW115799   3.363   2.505   4.051  0.4645  0.7857 -0.8036
 4783SOL    HW215800   3.457   2.619   4.084  1.0782 -0.2872  1.3053
 4784SOL     OW15801   5.460   2.583   4.979 -0.1602  0.0028  0.3257
 4784SOL    HW115802   5.423   2.651   5.035  1.9040  2.8534 -1.4924
 4784SOL    HW215803   5.396   2.573   4.908  0.1785  1.2476 -0.1891
 4785SOL     OW15804   4.196   4.781   2.863 -0.6190  0.5356 -0.2485
 4785SOL    HW115805   4.107   4.784   2.898 -0.6035  1.9968 -0.2666
 4785SOL    HW215806   4.208   4.866   2.820  0.9357  0.5327  0.1121
 4786SOL     OW15807   3.247   4.740   2.835  0.2820  0.1793 -0.7874
 4786SOL    HW115808   3.314   4.759   2.769  1.3500 -1.0922 -0.1170
 4786SOL    HW215809   3.296   4.717   2.914 -0.9281 -0.9603 -0.3218
 4787SOL     OW15810   4.386   0.194   4.380  0.1969 -0.9557  0.0798
 4787SOL    HW115811   4.344   0.280   4.375  0.3745 -0.9073 -0.8331
 4787SOL    HW215812   4.452   0.203   4.448  1.5169  0.2388 -1.2651
 4788SOL     OW15813   1.380   4.049   2.196  0.3850  0.8708  0.2019
 4788SOL    HW115814   1.419   4.136   2.209  0.8992  0.5949  0.5228
 4788SOL    HW215815   1.345   4.026   2.282  0.4221  0.6751  0.1640
 4789SOL     OW15816   1.381   3.313   2.455 -0.7861 -0.1307  0.3290
 4789SOL    HW115817   1.315   3.329   2.522 -0.5286  3.0175  0.0131
 4789SOL    HW215818   1.464   3.332   2.498 -0.4868  0.2696 -0.4032
 4790SOL     OW15819   5.343   6.127   6.578  0.3075 -0.2243 -0.4427
 4790SOL    HW115820   5.372   6.048   6.623 -0.3740 -0.5113 -0.4984
 4790SOL    HW215821   5.379   6.199   6.630 -0.8987 -0.5283  0.8778
 4791SOL     OW15822   1.679   3.345   7.134 -0.4237 -0.7969 -0.4265
 4791SOL    HW115823   1.636   3.351   7.049 -2.3973  0.2917  0.5766
 4791SOL    HW215824   1.608   3.328   7.196  0.8917 -1.0913  1.0811
 4792SOL     OW15825   0.453   1.798   5.316  0.0295  0.1594  0.0737
 4792SOL    HW115826   0.518   1.768   5.252  1.8861  1.0315  1.4603
 4792SOL    HW215827   0.441   1.891   5.296 -1.1293 -0.0773 -0.4138
 4793SOL     OW15828   6.124   0.226   5.593  0.4081  0.5014 -0.0217
 4793SOL    HW115829   6.104   0.304   5.543  1.9291 -0.1798 -1.7659
 4793SOL    HW215830   6.190   0.254   5.657  0.1883  0.8475  0.0577
 4794SOL     OW15831   5.173   0.825   3.602  0.5737 -0.5234  0.1720
 4794SOL    HW115832   5.226   0.901   3.576 -0.1977 -0.2742 -0.7662
 4794SOL    HW215833   5.083   0.855   3.590  0.1062 -2.8634 -4.5873
 4795SOL     OW15834   5.789   6.430   3.569 -0.2023  0.0091  0.5654
 4795SOL    HW115835   5.763   6.428   3.477 -1.2372 -2.3660  0.8489
 4795SOL    HW215836   5.863   6.369   3.575  1.7405  2.2139  0.8875
 4796SOL     OW15837   5.433   4.731   4.589 -0.2324  0.5501  0.1371
 4796SOL    HW115838   5.521   4.697   4.575 -0.1378 -0.1932  2.1647
 4796SOL    HW215839   5.425   4.804   4.528  1.3687 -0.0574 -0.8634
 4797SOL     OW15840   1.207   0.388   1.279 -0.3976  0.0376 -0.0144
 4797SOL    HW115841   1.209   0.484   1.270 -0.2529 -0.0208 -0.6793
 4797SOL    HW215842   1.143   0.360   1.213 -1.4298 -0.2359  1.0571
 4798SOL     OW15843   3.509   4.917   2.886 -1.1135  0.0382 -0.4013
 4798SOL    HW115844   3.462   4.932   2.804 -0.2675 -0.8269 -1.0643
 4798SOL    HW215845   3.589   4.871   2.860 -1.2791 -1.1132  1.0203
 4799SOL     OW15846   0.317   1.588   2.007 -0.0475  0.4642  0.1560
 4799SOL    HW115847   0.372   1.586   1.928  1.8877 -1.1495  1.4204
 4799SOL    HW215848   0.286   1.498   2.017 -2.8200  1.2725 -0.3460
 4800SOL     OW15849   1.284   2.353   1.449  0.2934 -0.0679 -0.1382
 4800SOL    HW115850   1.378   2.355   1.431  0.5691 -1.4389  1.0025
 4800SOL    HW215851   1.262   2.260   1.455 -0.7378  0.2422  1.4756
 4801SOL     OW15852   5.210   1.718   5.545  0.0799  0.5461  0.0191
 4801SOL    HW115853   5.170   1.632   5.537  0.3802  0.3510  0.5658
 4801SOL    HW215854   5.263   1.728   5.466 -0.1740  0.3428 -0.1739
 4802SOL     OW15855   2.042   2.298   6.789  0.1942  0.2039  0.4940
 4802SOL    HW115856   2.133   2.269   6.801  0.0212 -0.2344  0.7771
 4802SOL    HW215857   2.007   2.303   6.878 -0.6311 -1.5134  0.3057
 4803SOL     OW15858   2.480   0.676   6.225 -0.1309 -0.0244  0.6421
 4803SOL    HW115859   2.407   0.645   6.278 -1.3235 -0.4717 -1.1684
 4803SOL    HW215860   2.511   0.599   6.179  0.7711  0.3826  0.5406
 4804SOL     OW15861   4.811   1.610   3.082 -0.0409  0.7284 -0.7814
 4804SOL    HW115862   4.727   1.565   3.088  0.3719 -0.1844 -1.6213
 4804SOL    HW215863   4.838   1.624   3.172  0.1497 -1.3539 -0.4691
 4805SOL     OW15864   6.008   5.420   3.283 -0.5438  0.1087 -0.1082
 4805SOL    HW115865   5.950   5.345   3.298 -2.0657  0.5852 -2.8619
 4805SOL    HW215866   6.095   5.381   3.274 -1.1114 -1.1746 -0.2459
 4806SOL     OW15867   6.804   5.377   5.236  0.2926  0.1768  0.6931
 4806SOL    HW115868   6.774   5.288   5.253  0.6345  0.0188  0.4771
 4806SOL    HW215869   6.785   5.425   5.317  1.1267 -0.3568  1.2221
 4807SOL     OW15870   2.001   5.861   3.653 -0.3541  0.5614  0.4774
 4807SOL    HW115871   2.083   5.863   3.604  0.1750 -0.0850  1.3150
 4807SOL    HW215872   1.976   5.953   3.662  0.2882  0.7643  0.2224
 4808SOL     OW15873   4.880   7.082   4.199 -0.2628 -0.1139 -0.4349
 4808SOL    HW115874   4.819   7.147   4.233  1.4131  1.4335 -0.2488
 4808SOL    HW215875   4.874   7.008   4.260 -0.4689  0.8485  0.7283
 4809SOL     OW15876   6.513   0.109   4.002 -0.5952 -0.1064  0.0371
 4809SOL    HW115877   6.460   0.188   4.011 -1.2120 -0.6770  1.6144
 4809SOL    HW215878   6.602   0.137   4.023 -0.3987  0.6168 -1.5841
 4810SOL     OW15879   6.142   6.348   6.510  0.6820 -0.0072  0.0887
 4810SOL    HW115880   6.058   6.371   6.471  0.0650  1.6619  2.2343
 4810SOL    HW215881   6.148   6.253   6.499 -2.1115 -0.3702  0.9735
 4811SOL     OW15882   0.193   6.723   6.210  0.2793 -0.1803  0.1033
 4811SOL    HW115883   0.285   6.717   6.236  0.2774  0.2958  0.2258
 4811SOL    HW215884   0.146   6.670   6.274  0.3564  0.3968  0.6434
 4812SOL     OW15885   6.022   5.762   5.579  0.1340 -0.2523  0.2034
 4812SOL    HW115886   6.005   5.723   5.666 -0.0279 -0.2758  0.1631
 4812SOL    HW215887   6.117   5.767   5.573  0.1536 -0.5065  0.2715
 4813SOL     OW15888   2.631   0.772   3.437  0.3440 -0.2618  0.6318
 4813SOL    HW115889   2.583   0.791   3.518 -2.0223 -1.5771 -0.3622
 4813SOL    HW215890   2.564   0.774   3.369  2.2972  0.9653 -1.3821
 4814SOL     OW15891   4.503   5.189   1.837 -0.1901  0.3504 -0.1519
 4814SOL    HW115892   4.475   5.279   1.852  0.5359  0.4671  0.6488
 4814SOL    HW215893   4.424   5.143   1.810 -1.0159  0.8135  1.3233
 4815SOL     OW15894   1.509   3.710   5.943  0.0888 -0.1124  0.0601
 4815SOL    HW115895   1.479   3.771   5.875 -1.0689  0.1505  0.7661
 4815SOL    HW215896   1.572   3.654   5.899 -1.6807 -0.8930 -1.6347
 4816SOL     OW15897   3.621   0.597   5.361  0.0085 -0.1332  0.5854
 4816SOL    HW115898   3.594   0.663   5.425  2.5281  0.6456  0.9639
 4816SOL    HW215899   3.545   0.540   5.351 -2.5843  3.1950 -0.3279
 4817SOL     OW15900   3.914   3.808   4.018  0.2199 -0.1665  0.0438
 4817SOL    HW115901   3.982   3.742   4.005  0.3057  0.2223 -1.7110
 4817SOL    HW215902   3.955   3.891   3.993 -0.4096  0.3134  0.5562
 4818SOL     OW15903   0.108   0.287   3.723 -0.3109  0.5161 -0.0860
 4818SOL    HW115904   0.013   0.291   3.732 -0.3534  1.2346 -0.8060
 4818SOL    HW215905   0.123   0.219   3.657 -0.1409 -2.1027  2.4007
 4819SOL     OW15906   1.770   3.504   1.071 -0.3872 -0.6667 -0.3783
 4819SOL    HW115907   1.714   3.426   1.068  0.5105 -1.3841  0.6645
 4819SOL    HW215908   1.749   3.545   1.155 -0.2899 -0.2098 -0.5745
 4820SOL     OW15909   5.369   6.058   4.746  0.1382 -0.0922  0.5269
 4820SOL    HW115910   5.429   6.101   4.806 -0.0576 -0.0672  0.7053
 4820SOL    HW215911   5.282   6.072   4.784 -0.0783  0.7141 -0.2395
 4821SOL     OW15912   3.005   4.796   2.927  0.0157  0.5309  0.2282
 4821SOL    HW115913   3.091   4.777   2.889  0.2534 -4.4714  2.4419
 4821SOL    HW215914   2.944   4.787   2.855  1.0451 -0.3331 -0.5698
 4822SOL     OW15915   6.435   3.381   5.543  0.2573 -0.1271 -0.2054
 4822SOL    HW115916   6.454   3.287   5.550  1.3690  0.0993  0.0613
 4822SOL    HW215917   6.441   3.414   5.633 -0.0196  0.2211 -0.3110
 4823SOL     OW15918   2.130   6.963   0.266 -0.8927 -0.6320 -0.8742
 4823SOL    HW115919   2.150   6.869   0.269 -3.5637 -1.2379  1.1655
 4823SOL    HW215920   2.040   6.968   0.234 -0.0223  1.4804 -3.3496
 4824SOL     OW15921   3.969   4.593   1.154  0.1976  0.0518 -0.4627
 4824SOL    HW115922   3.935   4.541   1.227  1.4832 -0.3296 -0.1054
 4824SOL    HW215923   4.040   4.644   1.191  0.5706  0.2027 -1.3460
 4825SOL     OW15924   3.023   6.221   0.657 -0.0728  0.0564  0.6443
 4825SOL    HW115925   2.998   6.196   0.568  1.8692  1.2751 -0.3204
 4825SOL    HW215926   3.023   6.139   0.706 -0.9633 -0.6714 -0.5224
 4826SOL     OW15927   3.381   3.329   2.568 -0.2951  0.5554 -0.1718
 4826SOL    HW115928   3.366   3.400   2.507 -1.0012  1.3580  0.9079
 4826SOL    HW215929   3.294   3.302   2.596  0.0184  0.5456  0.8517
 4827SOL     OW15930   0.465   5.355   5.997 -0.4256  0.1358  0.3962
 4827SOL    HW115931   0.427   5.412   5.930 -0.7285 -0.7809 -0.2354
 4827SOL    HW215932   0.544   5.319   5.957 -1.5696 -1.8560 -0.2195
 4828SOL     OW15933   2.123   4.472   1.464 -0.4005  0.3065  0.0665
 4828SOL    HW115934   2.117   4.500   1.372  1.0945  1.2682  0.2309
 4828SOL    HW215935   2.042   4.503   1.504 -0.5893  0.8319 -0.6988
 4829SOL     OW15936   1.489   3.831   5.688 -0.7609  0.2481  0.6178
 4829SOL    HW115937   1.521   3.757   5.635  1.0064  1.0195  0.5331
 4829SOL    HW215938   1.396   3.838   5.665 -0.2102  0.2144 -2.0395
 4830SOL     OW15939   6.656   1.141   4.524  0.4357  0.5792 -0.2198
 4830SOL    HW115940   6.606   1.103   4.453 -0.4835 -0.2069  0.8118
 4830SOL    HW215941   6.725   1.078   4.542 -0.8004 -0.4413  1.1710
 4831SOL     OW15942   5.511   5.916   2.789  0.1419  0.0880 -0.2846
 4831SOL    HW115943   5.555   5.941   2.707 -0.1760 -0.9132 -0.7826
 4831SOL    HW215944   5.562   5.841   2.820  0.0576  0.2588  0.2600
 4832SOL     OW15945   3.191   4.452   5.098 -0.3526  0.3050  0.0816
 4832SOL    HW115946   3.274   4.410   5.122 -1.5125 -1.7975  0.7159
 4832SOL    HW215947   3.173   4.512   5.171  0.2915  0.2876  0.2601
 4833SOL     OW15948   0.491   1.099   2.238 -0.0171  0.2263 -0.2361
 4833SOL    HW115949   0.476   1.136   2.150 -1.1957 -2.6725 -1.3736
 4833SOL    HW215950   0.585   1.084   2.242  0.2199  1.4714 -0.4789
 4834SOL     OW15951   5.612   4.718   3.147  0.0597  0.1496  0.1226
 4834SOL    HW115952   5.559   4.797   3.157  2.7806  2.1279  0.1632
 4834SOL    HW215953   5.674   4.739   3.077  0.5999 -2.1350 -0.1710
 4835SOL     OW15954   1.551   5.406   0.710  0.0398 -0.3167  0.3834
 4835SOL    HW115955   1.605   5.418   0.631 -0.5555 -1.4912 -0.2239
 4835SOL    HW215956   1.605   5.440   0.781  0.5691  0.8281 -0.5317
 4836SOL     OW15957   0.945   3.411   4.192  0.4532 -0.6996 -0.4018
 4836SOL    HW115958   0.999   3.393   4.268  0.1817  0.8113  0.1966
 4836SOL    HW215959   0.983   3.489   4.152 -0.8992  0.0451 -0.3120
 4837SOL     OW15960   1.108   4.870   3.420 -0.0558  0.1092  0.4622
 4837SOL    HW115961   1.081   4.937   3.357  0.1048 -0.0936  0.1770
 4837SOL    HW215962   1.105   4.788   3.371  0.7760  0.0404  0.5102
 4838SOL     OW15963   1.341   1.189   6.009 -0.0796  0.5923 -0.8725
 4838SOL    HW115964   1.296   1.271   6.026  1.6020  1.3183  0.3349
 4838SOL    HW215965   1.336   1.178   5.914  1.2244  3.0406 -1.2935
 4839SOL     OW15966   6.574   2.794   4.735 -0.3813 -0.6362 -0.0850
 4839SOL    HW115967   6.602   2.877   4.775 -0.2648 -0.7743  0.1268
 4839SOL    HW215968   6.513   2.757   4.799 -0.0482 -0.9495  0.0566
 4840SOL     OW15969   0.147   3.507   5.313  0.5051  0.2897  0.5901
 4840SOL    HW115970   0.100   3.497   5.397  0.1691  1.1207  0.5092
 4840SOL    HW215971   0.155   3.602   5.301  1.2745  0.1661  0.0733
 4841SOL     OW15972   5.132   6.170   6.235  0.9532  0.3101  0.1416
 4841SOL    HW115973   5.214   6.134   6.266  1.1902  1.0007  0.3357
 4841SOL    HW215974   5.148   6.192   6.143  1.0375  0.5886  0.2217
 4842SOL     OW15975   5.888   4.296   0.354  0.1574 -0.2418 -0.1097
 4842SOL    HW115976   5.857   4.386   0.338 -0.6323 -0.4056  0.4206
 4842SOL    HW215977   5.841   4.243   0.291  0.0043 -0.3836  0.1221
 4843SOL     OW15978   2.137   1.188   4.267  0.1543 -0.0298  0.3625
 4843SOL    HW115979   2.175   1.103   4.246 -0.6385 -0.8532  2.0193
 4843SOL    HW215980   2.065   1.198   4.204  2.5716  1.2842 -2.4057
 4844SOL     OW15981   2.170   2.285   5.612  0.7498  0.5237  0.1224
 4844SOL    HW115982   2.240   2.239   5.565  0.9372  1.2931 -0.3789
 4844SOL    HW215983   2.098   2.223   5.616  0.7388  0.4237 -1.1727
 4845SOL     OW15984   2.952   6.561   3.218  0.0173  0.6146 -0.0471
 4845SOL    HW115985   3.038   6.601   3.215 -0.0810  0.9645  1.2650
 4845SOL    HW215986   2.912   6.594   3.299 -1.3431  0.4547 -0.6226
 4846SOL     OW15987   5.370   3.490   6.740  0.1112 -0.3728 -0.2361
 4846SOL    HW115988   5.368   3.585   6.750  2.5394 -0.4948  2.9467
 4846SOL    HW215989   5.282   3.461   6.764  0.1213  0.9570  1.5772
 4847SOL     OW15990   0.323   4.028   1.387 -0.0871 -0.3161  0.7139
 4847SOL    HW115991   0.377   4.095   1.429 -0.7825 -0.4772  1.9191
 4847SOL    HW215992   0.247   4.077   1.354  0.1727 -0.2809  0.1571
 4848SOL     OW15993   5.985   5.877   2.442  0.2122 -0.2647 -0.6961
 4848SOL    HW115994   6.022   5.866   2.529 -0.8351  0.1858 -0.1847
 4848SOL    HW215995   6.035   5.950   2.404  0.3044 -0.1041 -0.2713
 4849SOL     OW15996   1.469   5.621   3.991  0.5669  0.0281  0.7135
 4849SOL    HW115997   1.467   5.698   4.047 -2.5706 -0.9391  2.2187
 4849SOL    HW215998   1.377   5.599   3.977  1.2189 -0.9045 -3.4172
 4850SOL     OW15999   3.083   5.216   5.604  0.3445 -0.0040  0.3923
 4850SOL    HW116000   3.099   5.168   5.522  1.2587  2.7870 -1.1938
 4850SOL    HW216001   2.990   5.240   5.598  0.6050  0.9111 -0.3057
 4851SOL     OW16002   2.514   2.246   5.781 -0.4243 -0.4709 -0.0169
 4851SOL    HW116003   2.478   2.201   5.705  0.1987 -0.6869 -0.1937
 4851SOL    HW216004   2.483   2.195   5.856  0.6520 -1.5026 -0.2327
 4852SOL     OW16005   0.615   1.234   1.249  0.1357 -0.1930 -0.0899
 4852SOL    HW116006   0.680   1.304   1.252  0.1584 -0.1775 -0.8379
 4852SOL    HW216007   0.575   1.241   1.163  1.3847 -2.1845 -0.9288
 4853SOL     OW16008   5.166   3.189   7.065  0.0814 -0.2584  0.4051
 4853SOL    HW116009   5.197   3.101   7.045  1.5380  0.1641  0.7200
 4853SOL    HW216010   5.075   3.176   7.093 -0.4559 -1.3943 -1.6987
 4854SOL     OW16011   5.565   1.918   6.585 -0.1643 -0.2437  0.1799
 4854SOL    HW116012   5.499   1.909   6.517 -0.6321  0.0980  0.5838
 4854SOL    HW216013   5.603   1.831   6.594  0.5041 -0.1098 -1.1130
 4855SOL     OW16014   4.322   4.829   5.381  0.2744  0.0527 -0.0158
 4855SOL    HW116015   4.249   4.822   5.443  1.1490  1.4866  1.2441
 4855SOL    HW216016   4.280   4.835   5.295 -1.0506  0.1458  0.6131
 4856SOL     OW16017   2.533   0.612   5.283  0.0867  0.2029 -0.6551
 4856SOL    HW116018   2.559   0.530   5.239 -2.4022  0.0350 -2.0033
 4856SOL    HW216019   2.448   0.592   5.321  1.2251  1.0110  2.6209
 4857SOL     OW16020   1.714   1.572   1.041  0.0999 -0.4254  0.4885
 4857SOL    HW116021   1.708   1.596   0.949 -1.4480  0.6225  0.8153
 4857SOL    HW216022   1.668   1.488   1.047  1.0386 -0.9770  0.1751
 4858SOL     OW16023   6.366   5.679   6.114 -0.5394 -0.1962  0.7489
 4858SOL    HW116024   6.283   5.639   6.140 -1.4296  0.7561 -0.4942
 4858SOL    HW216025   6.432   5.611   6.130 -1.6887 -1.3269  0.7983
 4859SOL     OW16026   5.624   2.906   1.727  0.4206 -0.5897 -0.4446
 4859SOL    HW116027   5.704   2.867   1.691  1.8130  0.6916  1.0776
 4859SOL    HW216028   5.653   2.989   1.765 -1.8549  0.4355 -0.7755
 4860SOL     OW16029   6.105   4.742   2.285 -0.3351 -0.3228  0.2971
 4860SOL    HW116030   6.147   4.795   2.353 -1.6422  2.0694 -0.6020
 4860SOL    HW216031   6.141   4.776   2.203 -0.7109 -1.3344 -0.2995
 4861SOL     OW16032   4.257   2.731   6.901  0.5586 -0.4541 -0.4873
 4861SOL    HW116033   4.338   2.732   6.952  0.9133 -1.2913 -1.0052
 4861SOL    HW216034   4.258   2.814   6.853  0.7015 -0.0965  0.1277
 4862SOL     OW16035   5.765   0.115   4.846  0.3200 -0.2062 -1.1502
 4862SOL    HW116036   5.761   0.066   4.763 -1.2584  1.0281 -1.8570
 4862SOL    HW216037   5.689   0.084   4.896 -0.3337  1.0134 -1.3477
 4863SOL     OW16038   1.132   1.948   2.598 -0.1035 -0.1371  0.3499
 4863SOL    HW116039   1.181   2.023   2.563  0.5614  0.2699  2.0587
 4863SOL    HW216040   1.058   1.938   2.538  0.5338  1.0426 -0.6769
 4864SOL     OW16041   2.993   6.562   3.798 -0.4110  0.1897  0.5087
 4864SOL    HW116042   3.061   6.519   3.850  1.1417 -3.0880 -3.6671
 4864SOL    HW216043   2.912   6.516   3.824 -0.0068 -0.1510  1.2201
 4865SOL     OW16044   0.425   2.365   5.958  0.2129 -0.1555 -0.3606
 4865SOL    HW116045   0.359   2.383   5.891 -0.0881 -1.2612 -0.3821
 4865SOL    HW216046   0.439   2.449   6.001 -0.7207  0.2418 -0.7982
 4866SOL     OW16047   2.974   0.113   4.279 -0.2973 -0.1372 -0.6951
 4866SOL    HW116048   2.947   0.022   4.283 -0.1299 -0.1493  0.3996
 4866SOL    HW216049   2.975   0.142   4.370  0.4945  0.7093 -0.9607
 4867SOL     OW16050   2.832   3.739   4.027  0.2424  0.1771  0.0860
 4867SOL    HW116051   2.821   3.649   3.996  1.4098 -0.0443  0.2835
 4867SOL    HW216052   2.759   3.752   4.089 -0.4850 -0.3004 -0.6513
 4868SOL     OW16053   2.301   0.531   3.315 -0.7164 -0.5651  0.2343
 4868SOL    HW116054   2.360   0.490   3.377  1.7390 -0.0736 -1.6111
 4868SOL    HW216055   2.307   0.477   3.236 -1.4747  0.4081 -0.5223
 4869SOL     OW16056   4.430   3.636   6.254  0.0169 -0.2077  0.0094
 4869SOL    HW116057   4.514   3.671   6.286  0.2343 -0.8235  0.1306
 4869SOL    HW216058   4.434   3.542   6.274 -0.0064 -0.5468 -1.4804
 4870SOL     OW16059   4.344   4.516   0.677 -0.2941 -0.2040 -0.4164
 4870SOL    HW116060   4.265   4.463   0.686 -0.3552  0.1621  2.0878
 4870SOL    HW216061   4.320   4.600   0.715  1.4515 -0.3118  1.0686
 4871SOL     OW16062   3.063   6.079   1.741  0.0591 -0.0125  0.1639
 4871SOL    HW116063   3.031   6.057   1.654 -0.1378  0.7603  0.0366
 4871SOL    HW216064   3.035   6.170   1.755 -0.5685 -0.3624  1.3326
 4872SOL     OW16065   0.388   6.909   3.031  0.0817 -0.3812  0.3980
 4872SOL    HW116066   0.313   6.942   2.981  1.1997  0.2349 -0.9141
 4872SOL    HW216067   0.438   6.987   3.055  1.1085 -0.8748 -0.0674
 4873SOL     OW16068   5.148   3.435   1.988 -0.1922 -0.1434 -0.7279
 4873SOL    HW116069   5.203   3.357   1.980 -1.0004 -0.6590 -1.4366
 4873SOL    HW216070   5.196   3.492   2.049  0.2491 -1.3253  0.0778
 4874SOL     OW16071   4.018   0.957   3.667 -0.1306  0.2630  0.2631
 4874SOL    HW116072   4.050   0.894   3.732 -1.7741 -0.1235  0.7498
 4874SOL    HW216073   4.010   1.039   3.715  0.5966  0.4969  0.0028
 4875SOL     OW16074   5.898   5.372   1.898 -0.2017 -0.0240 -0.1975
 4875SOL    HW116075   5.977   5.334   1.937  1.3513  2.6719 -0.4684
 4875SOL    HW216076   5.861   5.427   1.967 -1.9509 -1.2880 -0.0580
 4876SOL     OW16077   6.640   3.829   5.289 -0.0143  0.3243 -0.0683
 4876SOL    HW116078   6.680   3.761   5.343  0.7287  0.9423  0.1767
 4876SOL    HW216079   6.584   3.781   5.228  0.0291 -0.4618  0.4937
 4877SOL     OW16080   3.266   6.374   1.134 -0.0763  0.3314  0.1496
 4877SOL    HW116081   3.265   6.409   1.223 -1.5332  1.6328 -0.3437
 4877SOL    HW216082   3.344   6.413   1.093 -0.3888  1.1413  0.3203
 4878SOL     OW16083   2.770   0.990   1.708  0.4189  0.1512  0.3588
 4878SOL    HW116084   2.679   0.965   1.720  0.1544 -0.5489 -2.3408
 4878SOL    HW216085   2.818   0.908   1.715  0.4943  0.0842 -0.6858
 4879SOL     OW16086   1.061   4.197   0.261 -0.1070 -0.4164  0.7478
 4879SOL    HW116087   1.122   4.191   0.187  0.5101 -1.3952  1.3136
 4879SOL    HW216088   1.106   4.152   0.333 -0.9515 -0.0110  1.5510
 4880SOL     OW16089   5.567   5.987   2.532 -0.5240 -0.2045 -0.2334
 4880SOL    HW116090   5.477   6.010   2.506 -0.9697 -0.2055  1.2277
 4880SOL    HW216091   5.598   5.930   2.461 -1.4754  0.2438 -1.0328
 4881SOL     OW16092   5.016   1.843   5.678  0.4458 -0.1360 -0.1611
 4881SOL    HW116093   5.080   1.793   5.628 -0.0045 -0.9945  0.1011
 4881SOL    HW216094   5.024   1.809   5.767 -0.8077 -0.7227 -0.2457
 4882SOL     OW16095   1.526   2.149   0.814 -0.3949 -0.5983  0.0818
 4882SOL    HW116096   1.474   2.071   0.793 -1.0377  0.5535 -3.1261
 4882SOL    HW216097   1.616   2.123   0.794 -0.3249 -1.1103  1.0012
 4883SOL     OW16098   6.529   0.411   3.078  0.3569  0.2599  0.0637
 4883SOL    HW116099   6.570   0.469   3.142 -1.0955  3.4379 -1.6515
 4883SOL    HW216100   6.436   0.431   3.082  0.2252  0.9077 -3.1724
 4884SOL     OW16101   4.404   4.199   4.923 -0.4486 -0.4113 -0.0947
 4884SOL    HW116102   4.478   4.146   4.955 -0.4812 -0.0956  0.5199
 4884SOL    HW216103   4.435   4.289   4.930 -0.7469 -0.3001 -0.2258
 4885SOL     OW16104   6.780   0.088   7.029 -0.0262 -0.1719  0.2801
 4885SOL    HW116105   6.729   0.149   6.975 -0.5612  1.0380  2.0808
 4885SOL    HW216106   6.739   0.003   7.012 -1.0919  0.3973 -0.1469
 4886SOL     OW16107   1.410   2.935   4.808 -0.0025  0.0821  0.3555
 4886SOL    HW116108   1.391   2.843   4.787  2.6959 -0.5245  0.0992
 4886SOL    HW216109   1.374   2.948   4.895 -1.8836 -0.6924 -0.2601
 4887SOL     OW16110   0.498   2.725   4.770  0.3725 -0.6003  0.1563
 4887SOL    HW116111   0.539   2.745   4.686  1.8668  1.3988  1.2700
 4887SOL    HW216112   0.507   2.631   4.780  0.8407 -0.7652 -1.5710
 4888SOL     OW16113   0.105   6.874   1.533  0.4796 -1.1397  0.7535
 4888SOL    HW116114   0.042   6.802   1.541  0.0669 -0.6636  1.9753
 4888SOL    HW216115   0.170   6.842   1.471 -1.3573 -1.3752 -1.1862
 4889SOL     OW16116   3.824   1.464   6.407 -0.4607 -0.5594  0.9258
 4889SOL    HW116117   3.874   1.516   6.469  0.2823  1.3659 -1.1543
 4889SOL    HW216118   3.733   1.475   6.435 -0.2285  1.0500  1.1649
 4890SOL     OW16119   2.865   5.954   2.273  0.1152  0.2556 -0.3020
 4890SOL    HW116120   2.830   5.918   2.192  1.8276 -0.2030 -0.8790
 4890SOL    HW216121   2.832   6.044   2.275 -0.7454 -0.0285 -1.0008
 4891SOL     OW16122   0.806   2.089   6.996 -0.6731  0.8442 -0.0410
 4891SOL    HW116123   0.890   2.097   7.041 -1.5397  2.6717  1.3871
 4891SOL    HW216124   0.752   2.038   7.056 -1.3939  2.0301  0.3389
 4892SOL     OW16125   0.470   6.844   1.187  0.7039  0.2900 -0.0071
 4892SOL    HW116126   0.465   6.938   1.206  0.1497  0.0631  1.0463
 4892SOL    HW216127   0.564   6.826   1.182  0.9292  0.4385  2.3718
 4893SOL     OW16128   1.490   6.687   0.360 -0.4748  0.0295  0.4816
 4893SOL    HW116129   1.537   6.714   0.280  0.3186 -0.3664  0.8004
 4893SOL    HW216130   1.460   6.769   0.398  1.4614  0.4894  1.1636
 4894SOL     OW16131   4.876   3.763   3.060 -0.3619 -0.1456  0.0378
 4894SOL    HW116132   4.949   3.739   3.003 -0.4048 -0.3348  0.0609
 4894SOL    HW216133   4.905   3.842   3.105 -0.9162  0.9233 -1.3917
 4895SOL     OW16134   4.048   1.841   6.766  0.0337  0.5805 -0.6733
 4895SOL    HW116135   4.041   1.786   6.844  0.1011 -0.1387 -1.1672
 4895SOL    HW216136   4.025   1.783   6.694  0.5948  1.0705 -1.2541
 4896SOL     OW16137   7.020   1.322   5.232  0.6332 -0.1444 -0.2298
 4896SOL    HW116138   6.970   1.295   5.309 -1.3424 -1.0621 -1.7180
 4896SOL    HW216139   7.056   1.241   5.197  0.1006 -0.0104 -1.1468
 4897SOL     OW16140   0.122   3.252   3.494 -0.0711 -0.1755  0.5775
 4897SOL    HW116141   0.170   3.281   3.572  1.1158  0.6255 -0.4195
 4897SOL    HW216142   0.177   3.279   3.420 -1.3828 -0.5098 -0.5613
 4898SOL     OW16143   4.361   4.429   6.188 -0.3471 -0.2351 -0.3209
 4898SOL    HW116144   4.271   4.458   6.204  0.0441  0.1842  1.2680
 4898SOL    HW216145   4.415   4.484   6.245  0.7365 -1.8560  0.2940
 4899SOL     OW16146   2.474   2.744   6.392  0.2752  0.2082 -0.4855
 4899SOL    HW116147   2.566   2.741   6.365  0.2012  1.7021 -1.0033
 4899SOL    HW216148   2.425   2.719   6.313  0.1999 -0.0367 -0.3655
 4900SOL     OW16149   1.348   2.412   2.539  0.4648 -0.7468 -0.1837
 4900SOL    HW116150   1.430   2.397   2.585  0.5041 -0.5848 -0.2000
 4900SOL    HW216151   1.364   2.489   2.485  0.0914 -0.3074  0.3257
 4901SOL     OW16152   4.259   0.802   7.025  0.4344 -0.2533  0.3279
 4901SOL    HW116153   4.287   0.712   7.043 -0.2452 -0.3116  1.2125
 4901SOL    HW216154   4.206   0.826   7.102 -1.4959  0.0107 -0.9967
 4902SOL     OW16155   2.587   5.625   6.610 -0.4887 -0.1981 -0.5314
 4902SOL    HW116156   2.630   5.573   6.542 -0.2141 -2.0894  1.0099
 4902SOL    HW216157   2.647   5.699   6.624  2.0265 -2.3418  0.9969
 4903SOL     OW16158   6.033   6.539   3.405 -0.3650 -0.4231  0.1059
 4903SOL    HW116159   6.028   6.630   3.434 -0.0064 -0.9347  1.9509
 4903SOL    HW216160   6.083   6.495   3.474 -2.4638 -2.4598  0.4742
 4904SOL     OW16161   3.127   0.688   6.848 -0.5339  0.1598 -0.1223
 4904SOL    HW116162   3.195   0.643   6.799  1.1232  1.1508  1.1470
 4904SOL    HW216163   3.094   0.622   6.909  0.7277  0.1815  0.6145
 4905SOL     OW16164   4.920   5.432   2.440 -0.2663 -0.4789 -0.0858
 4905SOL    HW116165   4.977   5.361   2.412 -0.5254 -0.4964 -0.5858
 4905SOL    HW216166   4.831   5.399   2.426 -0.4152 -0.5523  0.9350
 4906SOL     OW16167   6.554   2.911   2.620  0.0869  0.2531  0.3752
 4906SOL    HW116168   6.565   2.911   2.525  0.5854 -0.7256  0.4224
 4906SOL    HW216169   6.556   2.818   2.645 -1.6291  0.3826  1.1598
 4907SOL     OW16170   0.450   6.553   4.456 -0.0427  0.1538 -0.2713
 4907SOL    HW116171   0.356   6.552   4.438 -0.2661  2.0764  0.5761
 4907SOL    HW216172   0.482   6.632   4.414  0.4527  1.6081  2.5493
 4908SOL     OW16173   2.637   0.774   1.103  0.0700 -0.5519 -0.2250
 4908SOL    HW116174   2.710   0.757   1.163 -0.0471  0.4940  0.2295
 4908SOL    HW216175   2.626   0.692   1.055  1.9763 -0.5169 -0.7846
 4909SOL     OW16176   1.078   1.865   1.266 -0.0723  0.5872 -0.1516
 4909SOL    HW116177   1.024   1.896   1.339  1.7368  1.7066  0.7646
 4909SOL    HW216178   1.088   1.942   1.209  0.0650  0.2211 -0.6303
 4910SOL     OW16179   6.536   5.850   1.090 -0.0292  0.2186 -0.1733
 4910SOL    HW116180   6.501   5.761   1.091 -1.6664  0.7421 -2.3047
 4910SOL    HW216181   6.485   5.897   1.155  0.1375 -0.1333  0.2216
 4911SOL     OW16182   4.195   1.660   0.744 -0.3129  0.0582  0.4254
 4911SOL    HW116183   4.281   1.690   0.716 -0.0482  0.1975  1.3338
 4911SOL    HW216184   4.184   1.697   0.832 -1.1837 -0.1798  0.4319
 4912SOL     OW16185   3.151   3.128   1.559 -0.1850  0.2759 -0.5712
 4912SOL    HW116186   3.113   3.068   1.496  1.2051 -1.9039  0.5624
 4912SOL    HW216187   3.235   3.154   1.519 -0.0447  0.1734 -0.3426
 4913SOL     OW16188   5.401   5.526   1.697 -0.0651 -0.1084 -0.3692
 4913SOL    HW116189   5.371   5.546   1.608  0.3713  1.4711 -0.1886
 4913SOL    HW216190   5.491   5.558   1.701 -0.6305  1.5000  1.1362
 4914SOL     OW16191   2.845   5.775   6.350 -0.4164 -0.3630 -0.3271
 4914SOL    HW116192   2.767   5.778   6.406 -0.5508  0.8492 -0.5556
 4914SOL    HW216193   2.915   5.810   6.406 -0.4404  0.3377 -0.7170
 4915SOL     OW16194   0.821   3.686   4.749  1.0783 -0.6477 -0.1067
 4915SOL    HW116195   0.889   3.690   4.816  0.8931  0.4257  0.0476
 4915SOL    HW216196   0.867   3.674   4.667  1.6729  2.1023 -0.2665
 4916SOL     OW16197   5.362   1.195   5.036 -0.3485  0.0557  0.0734
 4916SOL    HW116198   5.323   1.111   5.012  1.5072 -0.7727 -0.1771
 4916SOL    HW216199   5.399   1.180   5.123  2.6662 -0.4280 -1.1542
 4917SOL     OW16200   4.423   5.895   0.078 -0.3032 -0.2824 -0.1926
 4917SOL    HW116201   4.431   5.917  -0.015  0.2024  3.4374  0.5591
 4917SOL    HW216202   4.514   5.883   0.108 -0.5095 -2.4109 -0.2940
 4918SOL     OW16203   3.615   0.935   1.733  0.0782 -0.0548  0.1012
 4918SOL    HW116204   3.581   0.971   1.815  0.8141  0.6391  0.1124
 4918SOL    HW216205   3.592   1.000   1.667 -0.3234 -0.5102 -0.2121
 4919SOL     OW16206   3.687   6.695   2.001  0.0918  0.9102  0.4492
 4919SOL    HW116207   3.736   6.777   1.993 -0.2040  1.1344  0.9028
 4919SOL    HW216208   3.605   6.711   1.955 -0.1129  0.9897  0.8393
 4920SOL     OW16209   5.560   6.746   3.844  0.3988 -0.0798 -0.4676
 4920SOL    HW116210   5.513   6.668   3.874  0.1357 -0.0887 -0.9038
 4920SOL    HW216211   5.641   6.711   3.806  0.9369 -0.0406  0.6027
 4921SOL     OW16212   0.431   2.119   0.874  0.0034  0.2031 -0.3993
 4921SOL    HW116213   0.458   2.140   0.785  4.4714  2.3058  1.1896
 4921SOL    HW216214   0.456   2.027   0.886 -2.7920 -0.8744 -1.8253
 4922SOL     OW16215   2.456   4.644   3.987  0.2161 -0.2569 -0.8109
 4922SOL    HW116216   2.399   4.575   3.953 -0.6893  0.6870 -1.2715
 4922SOL    HW216217   2.530   4.598   4.026 -1.4389 -1.6167  0.9410
 4923SOL     OW16218   1.482   2.151   3.928  0.1690  0.2981 -0.3214
 4923SOL    HW116219   1.421   2.078   3.941  0.8533 -0.1739  0.3460
 4923SOL    HW216220   1.477   2.201   4.009  1.8950 -0.6951  0.4426
 4924SOL     OW16221   2.482   2.996   4.159  0.1087 -0.1790 -0.1308
 4924SOL    HW116222   2.561   3.036   4.195 -0.4297  0.7811  0.0344
 4924SOL    HW216223   2.466   2.919   4.214 -0.7896  1.3264  1.8470
 4925SOL     OW16224   2.929   5.978   0.160  0.0026  0.6628  0.3198
 4925SOL    HW116225   2.841   5.958   0.125  1.3063 -1.3595 -2.1825
 4925SOL    HW216226   2.974   6.021   0.087  1.6304  0.0096  0.9066
 4926SOL     OW16227   6.420   5.897   3.174 -0.4808 -0.1322 -0.3457
 4926SOL    HW116228   6.408   5.893   3.269 -0.4116 -0.0114 -0.3307
 4926SOL    HW216229   6.497   5.953   3.163 -1.2830  0.9663 -0.5244
 4927SOL     OW16230   0.473   6.685   2.080  0.2382  0.3960 -0.2199
 4927SOL    HW116231   0.533   6.674   2.154  1.1549 -1.0642 -1.1400
 4927SOL    HW216232   0.403   6.622   2.097  1.3697 -1.2713 -1.4463
 4928SOL     OW16233   4.575   2.884   3.191  0.3128  0.3632  0.7103
 4928SOL    HW116234   4.498   2.941   3.182  0.6066  0.7822  0.8036
 4928SOL    HW216235   4.539   2.796   3.202 -0.1330  0.0341 -2.4967
 4929SOL     OW16236   2.145   3.003   6.724  0.0122  0.6247  0.3060
 4929SOL    HW116237   2.142   2.920   6.676  0.1484  1.2758 -0.8586
 4929SOL    HW216238   2.236   3.032   6.715 -0.4552  1.7860 -0.8518
 4930SOL     OW16239   6.885   4.650   4.224 -0.1475 -0.0824  0.5870
 4930SOL    HW116240   6.803   4.625   4.266  0.3799  0.5775  2.0625
 4930SOL    HW216241   6.891   4.592   4.148 -2.3737  0.3985 -0.0434
 4931SOL     OW16242   5.581   2.364   0.151 -0.0029 -0.4380 -0.1326
 4931SOL    HW116243   5.486   2.376   0.155  0.1033  0.3597  0.2344
 4931SOL    HW216244   5.595   2.272   0.173 -0.3849  0.3953  4.6348
 4932SOL     OW16245   2.338   1.870   2.954 -0.0597  0.0240 -0.0831
 4932SOL    HW116246   2.257   1.855   2.906  0.2929 -1.8056 -0.1789
 4932SOL    HW216247   2.343   1.965   2.964 -1.1558  0.3050 -1.8755
 4933SOL     OW16248   3.052   2.714   7.039 -0.2961 -0.3769 -0.2008
 4933SOL    HW116249   3.077   2.766   6.962  0.7530 -0.4411  0.0834
 4933SOL    HW216250   3.134   2.679   7.072 -0.0756  2.6836  3.1673
 4934SOL     OW16251   2.948   4.221   3.054  0.5314 -0.0602 -0.2180
 4934SOL    HW116252   3.005   4.298   3.045 -1.1341  1.1414 -0.9444
 4934SOL    HW216253   2.911   4.229   3.142 -0.8025  0.8584 -0.8245
 4935SOL     OW16254   4.783   0.798   6.160  0.1386 -0.2538  0.6155
 4935SOL    HW116255   4.782   0.884   6.118  1.8103 -0.5309 -0.0845
 4935SOL    HW216256   4.785   0.736   6.087  0.3797 -0.8406  1.1121
 4936SOL     OW16257   6.545   0.571   2.244  0.4025  0.5139 -0.1506
 4936SOL    HW116258   6.450   0.584   2.249  0.3946  0.4642 -0.1668
 4936SOL    HW216259   6.556   0.476   2.242  0.3039  0.4889 -3.1747
 4937SOL     OW16260   6.750   0.683   0.343 -0.3003 -0.4230  0.5063
 4937SOL    HW116261   6.689   0.672   0.416 -0.0065 -2.0129  0.5363
 4937SOL    HW216262   6.694   0.678   0.265 -0.5793  1.0260  0.5872
 4938SOL     OW16263   0.843   6.462   2.914  0.1086 -0.0828 -0.0987
 4938SOL    HW116264   0.903   6.537   2.916 -0.5255  0.4922  2.4889
 4938SOL    HW216265   0.873   6.408   2.842  2.2350  1.3675 -0.3926
 4939SOL     OW16266   0.395   4.512   2.524 -0.0244 -0.6287  1.0205
 4939SOL    HW116267   0.396   4.494   2.429 -2.4457  1.8598  0.3943
 4939SOL    HW216268   0.485   4.536   2.545  0.7827 -2.1609 -0.3803
 4940SOL     OW16269   0.694   0.795   2.336 -0.0380  0.7521 -0.2939
 4940SOL    HW116270   0.609   0.804   2.294  0.6133  0.6735 -1.6775
 4940SOL    HW216271   0.736   0.880   2.325  0.2118  0.6780  0.0540
 4941SOL     OW16272   1.416   0.235   0.447 -0.0605  0.3328 -0.1266
 4941SOL    HW116273   1.452   0.309   0.496 -0.4424 -0.3023  1.1490
 4941SOL    HW216274   1.406   0.268   0.358  0.1469  1.6907  0.3307
 4942SOL     OW16275   5.822   0.176   0.688  0.3486  0.3979  0.9826
 4942SOL    HW116276   5.896   0.119   0.704 -0.2355 -0.3580  1.0406
 4942SOL    HW216277   5.846   0.259   0.730  1.6754  0.5762 -0.0484
 4943SOL     OW16278   3.907   2.501   1.303 -0.1031  0.4476 -0.5780
 4943SOL    HW116279   3.966   2.456   1.243 -1.4007 -0.9955 -0.8275
 4943SOL    HW216280   3.819   2.484   1.269 -0.8136  0.5129  1.1131
 4944SOL     OW16281   6.133   2.653   4.119 -0.0632 -0.3378  0.8247
 4944SOL    HW116282   6.227   2.647   4.100 -0.4134  0.0030 -1.3089
 4944SOL    HW216283   6.129   2.680   4.210  1.9213 -0.0794  0.8874
 4945SOL     OW16284   7.084   3.461   3.757 -0.0595  0.2493 -0.8901
 4945SOL    HW116285   7.137   3.436   3.832 -0.5643 -0.9776 -0.9168
 4945SOL    HW216286   7.109   3.551   3.738 -0.0708  0.6482  0.8749
 4946SOL     OW16287   0.642   3.186   1.441 -0.2137  0.1861  0.1323
 4946SOL    HW116288   0.616   3.233   1.362  0.0931 -0.7692 -0.5563
 4946SOL    HW216289   0.560   3.166   1.485 -0.3712  0.9609  0.2026
 4947SOL     OW16290   4.323   4.408   3.545  0.2210 -0.1508  0.2755
 4947SOL    HW116291   4.390   4.344   3.521 -0.0159  0.2875 -1.6439
 4947SOL    HW216292   4.343   4.486   3.493 -0.2331  0.9316  1.6576
 4948SOL     OW16293   4.308   2.498   6.773  0.5346  0.4389  0.4685
 4948SOL    HW116294   4.324   2.532   6.685  2.0894  0.3696  0.7016
 4948SOL    HW216295   4.273   2.573   6.822  0.1490  0.6144 -0.0730
 4949SOL     OW16296   1.916   4.195   6.167  0.3096 -0.6571 -0.0218
 4949SOL    HW116297   1.903   4.191   6.072 -1.8830  1.0875  0.1186
 4949SOL    HW216298   1.996   4.247   6.178 -0.0353  0.0840 -0.9116
 4950SOL     OW16299   2.660   4.876   6.510  0.0938  0.2854 -0.2499
 4950SOL    HW116300   2.581   4.897   6.459  0.2067 -0.7187 -0.8683
 4950SOL    HW216301   2.627   4.852   6.597 -0.2346  0.5034 -0.3136
 4951SOL     OW16302   0.796   5.503   1.630 -0.1042 -0.2877  0.0495
 4951SOL    HW116303   0.710   5.514   1.669 -0.2046  0.0871 -0.2693
 4951SOL    HW216304   0.788   5.542   1.542  0.7182  0.8760  0.4586
 4952SOL     OW16305   6.188   6.070   3.666  0.0880 -0.1942  0.1233
 4952SOL    HW116306   6.273   6.031   3.683 -0.7947 -2.4449 -0.2705
 4952SOL    HW216307   6.127   6.020   3.721 -1.4210 -0.9470 -2.1056
 4953SOL     OW16308   6.887   1.479   3.161  0.2943 -0.3736  0.6537
 4953SOL    HW116309   6.840   1.396   3.176  1.2641 -1.2619 -0.9927
 4953SOL    HW216310   6.823   1.536   3.119  0.9104 -2.0712 -2.9534
 4954SOL     OW16311   1.522   0.162   4.902 -0.0903  0.2178  0.3497
 4954SOL    HW116312   1.499   0.249   4.868 -0.5910 -0.7032 -1.8595
 4954SOL    HW216313   1.443   0.133   4.947  0.7960  1.7228  3.1028
 4955SOL     OW16314   3.761   4.765   3.654  0.3120 -0.0530 -0.3241
 4955SOL    HW116315   3.737   4.846   3.699  0.1974 -0.6637  0.7441
 4955SOL    HW216316   3.760   4.788   3.561  0.0842  1.1146 -0.0446
 4956SOL     OW16317   6.127   4.093   1.071 -0.2161  0.1848 -0.0135
 4956SOL    HW116318   6.192   4.141   1.123  0.6810 -1.2090  0.2037
 4956SOL    HW216319   6.049   4.090   1.128 -0.8133  2.5264 -0.5761
 4957SOL     OW16320   2.919   4.629   4.491  0.2046 -0.4284  0.3300
 4957SOL    HW116321   2.907   4.538   4.462  2.4610 -0.7253  0.1448
 4957SOL    HW216322   2.935   4.678   4.410 -0.1998 -0.0052  0.5032
 4958SOL     OW16323   3.345   5.026   3.353 -1.0894  0.2548  0.1561
 4958SOL    HW116324   3.413   4.993   3.293  1.4009  0.9362  2.4345
 4958SOL    HW216325   3.312   5.105   3.310  0.5621  0.6910 -0.3901
 4959SOL     OW16326   0.075   0.781   2.671 -0.4491 -0.0366  0.3945
 4959SOL    HW116327   0.125   0.852   2.629  1.3257  0.0432  2.4330
 4959SOL    HW216328   0.098   0.703   2.621 -1.2599  0.5849 -0.9794
 4960SOL     OW16329   0.886   0.879   1.463 -0.5961 -0.1294 -0.7180
 4960SOL    HW116330   0.954   0.942   1.485 -0.7663  0.0805 -0.7868
 4960SOL    HW216331   0.804   0.926   1.478 -0.7422 -0.6233  0.0864
 4961SOL     OW16332   1.030   4.507   6.954  0.2228 -0.2803  0.0404
 4961SOL    HW116333   1.064   4.489   6.866 -1.1309 -1.4301 -0.2805
 4961SOL    HW216334   0.954   4.449   6.963 -1.4970  1.9531  0.8351
 4962SOL     OW16335   3.735   1.874   6.443 -0.2015  0.3071 -0.3096
 4962SOL    HW116336   3.827   1.850   6.436 -0.3661 -0.1954 -0.7547
 4962SOL    HW216337   3.687   1.793   6.430 -0.7330  0.7161 -1.0049
 4963SOL     OW16338   1.494   2.744   3.523  0.2948 -0.7003 -0.1414
 4963SOL    HW116339   1.546   2.663   3.522  1.9927  0.1653  3.0873
 4963SOL    HW216340   1.424   2.727   3.586 -0.7632 -0.3786 -1.1930
 4964SOL     OW16341   0.828   5.577   0.892  0.4180 -0.3015 -0.3362
 4964SOL    HW116342   0.760   5.530   0.843 -0.9687 -1.8489  2.8022
 4964SOL    HW216343   0.903   5.518   0.891 -0.9881 -2.4277  2.7269
 4965SOL     OW16344   3.385   4.621   4.603 -0.1158 -0.7858  0.7596
 4965SOL    HW116345   3.471   4.604   4.641  0.1583 -1.9189 -0.3027
 4965SOL    HW216346   3.324   4.576   4.660 -0.1502  0.9075  2.1313
 4966SOL     OW16347   3.385   6.606   1.909 -0.3802 -0.4842  0.2573
 4966SOL    HW116348   3.355   6.554   1.834  0.2590 -0.0247 -0.3297
 4966SOL    HW216349   3.305   6.633   1.953 -0.7634 -0.8195 -0.2218
 4967SOL     OW16350   1.064   1.978   4.404  0.5227 -0.1186  0.5273
 4967SOL    HW116351   1.044   1.885   4.403  0.5954 -0.1311 -0.5544
 4967SOL    HW216352   1.140   1.988   4.348 -0.2054  0.7377 -0.3486
 4968SOL     OW16353   6.108   4.911   2.771  0.3144 -0.1143  0.0968
 4968SOL    HW116354   6.057   4.873   2.843  2.0589 -0.4515  1.2120
 4968SOL    HW216355   6.192   4.866   2.775  0.7551  0.4860 -1.6362
 4969SOL     OW16356   1.588   1.418   3.331  0.4224 -0.2682  0.5985
 4969SOL    HW116357   1.504   1.391   3.294  0.2602  0.1172  0.6840
 4969SOL    HW216358   1.637   1.454   3.256  0.8443 -1.2677  0.3759
 4970SOL     OW16359   2.113   1.549   6.240  0.2925 -0.1713  0.0038
 4970SOL    HW116360   2.192   1.577   6.193 -0.3874  0.5681 -0.7343
 4970SOL    HW216361   2.075   1.483   6.183  0.3068 -0.4372  0.3009
 4971SOL     OW16362   3.245   0.586   0.485 -0.3208  0.5309 -0.2830
 4971SOL    HW116363   3.247   0.532   0.405 -2.6590 -0.5173  0.2734
 4971SOL    HW216364   3.161   0.563   0.526  0.7900  1.0825  2.4496
 4972SOL     OW16365   4.547   0.007   4.700 -0.0139 -0.3687  0.0128
 4972SOL    HW116366   4.474   0.034   4.756 -1.0378  1.0449 -1.9014
 4972SOL    HW216367   4.561   0.081   4.641  2.1881 -1.1072 -0.4933
 4973SOL     OW16368   2.997   4.014   1.293 -0.2309 -0.0928  0.1414
 4973SOL    HW116369   3.072   4.040   1.345 -0.5264 -1.0000  1.0417
 4973SOL    HW216370   2.975   4.092   1.241 -0.3988  1.0836  1.9156
 4974SOL     OW16371   7.038   2.484   4.030 -0.1179 -0.2441 -0.0905
 4974SOL    HW116372   7.111   2.430   4.000 -0.4838  0.8437 -3.2745
 4974SOL    HW216373   6.964   2.459   3.975 -1.8526 -0.3113  2.1113
 4975SOL     OW16374   3.977   6.028   1.200 -0.2060 -0.1852  0.3828
 4975SOL    HW116375   3.975   6.123   1.212  1.7244  0.1637 -1.4942
 4975SOL    HW216376   3.890   5.998   1.228 -0.6465  2.0345  1.5752
 4976SOL     OW16377   4.236   5.461   6.244  0.3877  0.2505 -1.0020
 4976SOL    HW116378   4.263   5.380   6.202  2.7118  1.0708 -1.2415
 4976SOL    HW216379   4.166   5.496   6.188  1.3088 -0.2009 -2.4772
 4977SOL     OW16380   0.218   5.222   6.573 -0.4653 -0.0700 -0.2976
 4977SOL    HW116381   0.167   5.141   6.583  0.2675 -0.3434  1.6355
 4977SOL    HW216382   0.305   5.200   6.607  0.5758  0.7879 -2.2420
 4978SOL     OW16383   3.866   6.670   3.216  0.2660  0.4352 -0.1732
 4978SOL    HW116384   3.836   6.670   3.125  0.8579 -3.1461 -0.5143
 4978SOL    HW216385   3.786   6.659   3.267 -0.0846  2.5884 -0.1278
 4979SOL     OW16386   6.667   6.517   6.189 -0.3037 -0.1003 -0.2609
 4979SOL    HW116387   6.715   6.491   6.267  0.6914 -0.5692 -1.0165
 4979SOL    HW216388   6.676   6.612   6.186  0.7721 -0.2042 -0.5182
 4980SOL     OW16389   1.348   5.889   2.922  0.4248  0.1517  0.3681
 4980SOL    HW116390   1.294   5.836   2.980 -0.4343  0.2018 -0.3716
 4980SOL    HW216391   1.412   5.931   2.980 -0.2476  0.0008  1.2285
 4981SOL     OW16392   2.747   1.983   0.135 -0.6871  0.4090 -0.2434
 4981SOL    HW116393   2.719   1.977   0.043 -2.1819  2.8882 -0.0166
 4981SOL    HW216394   2.838   2.014   0.130 -0.7066  0.3835 -0.8633
 4982SOL     OW16395   4.543   1.443   1.597  0.1502  0.2086 -0.0186
 4982SOL    HW116396   4.629   1.402   1.605  0.1637  0.4592  1.6610
 4982SOL    HW216397   4.542   1.481   1.509  1.6073 -0.1257 -0.2037
 4983SOL     OW16398   0.579   4.080   4.209  0.1142 -0.1356  0.2479
 4983SOL    HW116399   0.670   4.100   4.232  0.1935 -0.7510  0.4838
 4983SOL    HW216400   0.549   4.019   4.276 -0.1349 -0.7551 -0.4077
 4984SOL     OW16401   1.951   4.758   5.081  0.0842 -0.8141  0.1628
 4984SOL    HW116402   2.017   4.771   5.013  0.6414 -2.5974  0.3050
 4984SOL    HW216403   1.973   4.821   5.149 -0.0580  0.5129 -0.9767
 4985SOL     OW16404   2.835   0.014   7.036 -0.0881  0.3534 -0.5000
 4985SOL    HW116405   2.917   0.021   7.084 -0.8422  1.8797  0.6406
 4985SOL    HW216406   2.791  -0.063   7.073  0.5706 -0.1305 -0.7197
 4986SOL     OW16407   5.053   0.789   1.092  0.2212 -0.5051 -0.4309
 4986SOL    HW116408   5.140   0.763   1.122 -0.6292 -3.3969 -0.1993
 4986SOL    HW216409   5.031   0.725   1.025 -1.9716 -0.2172 -0.0468
 4987SOL     OW16410   2.369   6.988   4.971  0.0528  0.4645 -0.5317
 4987SOL    HW116411   2.431   6.916   4.982  2.1323  2.2640  0.2164
 4987SOL    HW216412   2.318   6.988   5.051 -0.6279 -0.7147 -0.9339
 4988SOL     OW16413   4.025   1.336   2.798  0.0037  0.2009  0.5728
 4988SOL    HW116414   4.071   1.414   2.766  2.4344 -1.4609 -0.2471
 4988SOL    HW216415   4.070   1.314   2.880  0.0645 -0.9238  0.2498
 4989SOL     OW16416   2.008   6.136   0.496  0.3397  0.2134 -0.1473
 4989SOL    HW116417   2.001   6.196   0.421 -0.4128 -1.6849 -1.6841
 4989SOL    HW216418   1.996   6.192   0.573  1.1785  2.2516 -1.4191
 4990SOL     OW16419   2.674   6.455   3.072 -0.3681  0.0347  0.0495
 4990SOL    HW116420   2.748   6.402   3.103 -0.4960 -0.0007  0.2993
 4990SOL    HW216421   2.626   6.477   3.152 -3.1572 -3.6250 -0.3470
 4991SOL     OW16422   0.001   0.344   5.729  0.4529  0.4870  0.6472
 4991SOL    HW116423  -0.002   0.411   5.661 -1.3525  0.5633  0.7646
 4991SOL    HW216424   0.010   0.261   5.681  0.7586  0.6555  0.4096
 4992SOL     OW16425   4.078   1.018   5.985  0.7941  0.1117  0.0214
 4992SOL    HW116426   4.052   0.952   5.921 -0.1631  0.9899 -0.5297
 4992SOL    HW216427   4.016   1.090   5.972  2.0025  1.2599  0.3825
 4993SOL     OW16428   3.275   2.441   3.887 -0.0261  0.5177  0.1620
 4993SOL    HW116429   3.259   2.352   3.857 -0.1105  1.1549 -1.8047
 4993SOL    HW216430   3.281   2.493   3.807  1.2000  2.0933  1.2110
 4994SOL     OW16431   6.907   2.374   5.044  0.3538 -0.1489 -0.6321
 4994SOL    HW116432   6.911   2.280   5.028  1.0189 -0.8691  2.8151
 4994SOL    HW216433   6.992   2.396   5.081 -0.4560  1.3523  0.4845
 4995SOL     OW16434   6.804   5.936   0.726  0.1566  0.1157  0.4439
 4995SOL    HW116435   6.869   5.986   0.777 -0.1900 -0.5038  1.5165
 4995SOL    HW216436   6.722   5.948   0.773  0.1071 -1.6224  0.8359
 4996SOL     OW16437   3.717   4.292   4.730 -0.5139 -0.1164 -0.7523
 4996SOL    HW116438   3.800   4.260   4.695 -0.4025 -0.2044 -0.4113
 4996SOL    HW216439   3.686   4.222   4.787 -0.3147  0.3458 -0.0725
 4997SOL     OW16440   1.375   0.550   2.249 -0.1390 -0.4047 -0.3899
 4997SOL    HW116441   1.343   0.532   2.338  1.3191  2.1283  0.7794
 4997SOL    HW216442   1.333   0.633   2.226  1.3216  0.1893 -1.0406
 4998SOL     OW16443   0.618   1.765   5.080  0.2683  0.1254  0.1899
 4998SOL    HW116444   0.551   1.829   5.055 -0.1639 -0.4853 -0.2616
 4998SOL    HW216445   0.619   1.703   5.007  0.5000 -0.5151  0.7363
 4999SOL     OW16446   6.232   5.078   3.712 -0.2677  0.0326  0.2780
 4999SOL    HW116447   6.297   5.079   3.782 -0.5736  0.4676  0.5623
 4999SOL    HW216448   6.151   5.047   3.754 -0.0468 -1.3364 -0.2618
 5000SOL     OW16449   5.278   2.436   5.760  0.3980  0.7016  0.4584
 5000SOL    HW116450   5.292   2.529   5.739  0.6614  0.5939  0.1429
 5000SOL    HW216451   5.366   2.401   5.773  0.3447  0.3377 -0.1145
 5001SOL     OW16452   6.690   3.950   6.248  0.3112 -0.1359  0.2793
 5001SOL    HW116453   6.618   4.012   6.253 -0.3516 -0.2584 -3.7134
 5001SOL    HW216454   6.768   4.004   6.240  0.2352  0.0818  1.0009
 5002SOL     OW16455   2.669   1.123   0.153 -0.2959 -0.4874  0.0482
 5002SOL    HW116456   2.688   1.032   0.177  0.6981  0.1995  2.1591
 5002SOL    HW216457   2.745   1.149   0.100 -0.7715 -0.9775 -0.8969
 5003SOL     OW16458   6.973   6.219   1.262  0.2828  0.1258 -0.1245
 5003SOL    HW116459   6.892   6.171   1.279  1.4468 -1.9433 -0.1075
 5003SOL    HW216460   7.006   6.182   1.180  0.7926  1.5540 -0.5970
 5004SOL     OW16461   5.956   6.862   1.688  0.7116 -0.2616  0.0814
 5004SOL    HW116462   5.924   6.919   1.617  2.8718 -1.5791 -2.1495
 5004SOL    HW216463   5.898   6.786   1.687  0.0829  0.2085  0.4846
 5005SOL     OW16464   0.823   6.600   5.848 -0.3766 -0.5687  0.9564
 5005SOL    HW116465   0.861   6.646   5.773  0.4792  0.2177  1.8351
 5005SOL    HW216466   0.893   6.599   5.913 -2.0088  1.5712  2.9178
 5006SOL     OW16467   4.243   2.146   0.417  0.6248  0.5759 -0.2709
 5006SOL    HW116468   4.319   2.204   0.408  0.5236  0.4251 -3.0055
 5006SOL    HW216469   4.174   2.189   0.367  0.1833 -1.2699 -1.3212
 5007SOL     OW16470   4.588   6.210   0.140  0.5452 -0.2031  0.1684
 5007SOL    HW116471   4.516   6.266   0.171  1.3033  1.7197 -1.3027
 5007SOL    HW216472   4.552   6.167   0.062  0.4626 -0.5443  0.3944
 5008SOL     OW16473   6.610   3.232   2.264 -0.0480 -0.0049  0.1765
 5008SOL    HW116474   6.637   3.183   2.186  2.5232  1.5520 -0.0398
 5008SOL    HW216475   6.671   3.204   2.332 -0.0872  1.0956  0.6915
 5009SOL     OW16476   6.987   4.025   1.364 -0.0693 -0.4374 -0.1066
 5009SOL    HW116477   6.901   4.035   1.406  0.1345  3.0009 -0.1844
 5009SOL    HW216478   6.968   3.982   1.280 -1.8169  0.5996 -0.2984
 5010SOL     OW16479   5.096   1.491   2.666 -0.2820  0.1312 -0.6141
 5010SOL    HW116480   5.155   1.486   2.742 -1.5352 -1.9030  0.3142
 5010SOL    HW216481   5.145   1.451   2.595 -0.2015 -0.8111 -0.0520
 5011SOL     OW16482   6.700   5.963   6.397  0.3804  0.0360  0.0371
 5011SOL    HW116483   6.667   6.049   6.421  1.3744  1.7972 -4.0123
 5011SOL    HW216484   6.783   5.954   6.443  0.9443  1.9550 -0.5205
 5012SOL     OW16485   1.320   4.845   2.388  0.6455 -0.3090 -0.0023
 5012SOL    HW116486   1.402   4.865   2.342  0.0942  0.6154 -0.6078
 5012SOL    HW216487   1.262   4.810   2.320  0.0411  0.4512  0.1140
 5013SOL     OW16488   6.267   1.758   6.114 -0.9810  0.5117 -0.0365
 5013SOL    HW116489   6.189   1.745   6.058  0.0907 -1.1850 -1.2323
 5013SOL    HW216490   6.286   1.671   6.148 -0.5447  1.2175  1.5998
 5014SOL     OW16491   0.412   4.760   1.023  0.3459  0.2714  0.5789
 5014SOL    HW116492   0.483   4.812   0.985 -0.4984  2.1284  1.3768
 5014SOL    HW216493   0.427   4.766   1.118 -0.0327 -0.5853  0.6994
 5015SOL     OW16494   3.668   3.018   3.495 -0.5257  0.0361 -0.2627
 5015SOL    HW116495   3.602   2.954   3.470 -0.1261  0.3382 -2.2134
 5015SOL    HW216496   3.646   3.096   3.445  0.7440  0.4550 -0.2079
 5016SOL     OW16497   0.824   3.318   0.940 -0.4999 -0.2328 -0.4696
 5016SOL    HW116498   0.796   3.297   0.851 -0.5269  2.1682 -1.0997
 5016SOL    HW216499   0.752   3.371   0.975 -0.4522 -1.0910  0.9782
 5017SOL     OW16500   0.683   3.899   4.004  0.0341  0.1304 -0.0276
 5017SOL    HW116501   0.709   3.950   3.927  2.7892  0.1111  0.8036
 5017SOL    HW216502   0.649   3.965   4.065 -2.0435  0.1614 -1.1207
 5018SOL     OW16503   1.933   2.555   2.823 -0.2630 -0.2509 -0.8795
 5018SOL    HW116504   1.965   2.516   2.904 -1.1395  1.5379  0.3854
 5018SOL    HW216505   1.841   2.575   2.840 -0.0758  1.5907 -1.7197
 5019SOL     OW16506   2.458   2.218   3.661  0.0971 -0.8766  0.2673
 5019SOL    HW116507   2.445   2.309   3.686 -0.1413 -0.3146 -1.7358
 5019SOL    HW216508   2.377   2.173   3.686 -0.0085 -0.4283  0.7316
 5020SOL     OW16509   0.673   5.655   5.957  0.0198 -0.2945  0.4259
 5020SOL    HW116510   0.739   5.586   5.954 -1.4404 -1.7287 -0.8530
 5020SOL    HW216511   0.654   5.674   5.865  0.9262  2.4334  0.7199
 5021SOL     OW16512   2.333   5.534   5.905  1.3416  0.0562  0.2013
 5021SOL    HW116513   2.280   5.572   5.835 -0.3539 -0.4036  1.1920
 5021SOL    HW216514   2.298   5.445   5.915 -0.8784  1.1603  3.9111
 5022SOL     OW16515   1.314   7.015   1.613 -0.4250 -0.0947  0.1440
 5022SOL    HW116516   1.280   7.101   1.637 -1.8810 -1.1659  2.2690
 5022SOL    HW216517   1.329   7.020   1.519 -0.2210  2.5399  0.2576
 5023SOL     OW16518   4.869   3.770   1.129  0.3275 -0.1321  0.3644
 5023SOL    HW116519   4.867   3.822   1.048  0.1063  0.5460  0.7919
 5023SOL    HW216520   4.946   3.714   1.120  0.0764 -0.3662 -0.4926
 5024SOL     OW16521   4.849   3.263   6.110 -0.0882 -0.1913 -0.2936
 5024SOL    HW116522   4.818   3.172   6.101  0.8096 -0.4570 -0.8223
 5024SOL    HW216523   4.793   3.313   6.050 -0.5712 -0.3925 -0.0204
 5025SOL     OW16524   6.874   1.937   1.046  0.1358 -0.3605  0.0649
 5025SOL    HW116525   6.941   1.902   0.987  0.0682 -0.0722 -0.1870
 5025SOL    HW216526   6.901   2.027   1.062  0.3000 -0.5206  0.6971
 5026SOL     OW16527   5.691   0.009   5.764  0.5090  0.0696  0.2044
 5026SOL    HW116528   5.751  -0.063   5.746 -0.1101 -0.0787 -1.4003
 5026SOL    HW216529   5.740   0.067   5.823  1.7747 -0.6373 -0.1183
 5027SOL     OW16530   4.442   4.557   3.104 -0.7822 -0.1300  0.0849
 5027SOL    HW116531   4.366   4.502   3.089 -1.0099  0.1021  0.3640
 5027SOL    HW216532   4.512   4.517   3.053 -0.4541 -1.7452  1.7210
 5028SOL     OW16533   7.035   5.315   3.180  0.0545 -0.1184  0.1890
 5028SOL    HW116534   7.030   5.293   3.087  0.0348  0.0624  0.1469
 5028SOL    HW216535   7.080   5.241   3.220 -0.7108 -0.6102  0.1695
 5029SOL     OW16536   3.797   1.015   3.513  0.2309  0.0306 -0.2777
 5029SOL    HW116537   3.826   0.989   3.425  0.6013  1.6104 -0.6593
 5029SOL    HW216538   3.866   0.983   3.571  0.2077 -0.6398 -0.6028
 5030SOL     OW16539   5.796   5.827   5.914  0.0947  0.2021 -0.5577
 5030SOL    HW116540   5.768   5.789   5.997  1.3323  0.6796  0.0922
 5030SOL    HW216541   5.855   5.761   5.876  1.8547  1.2008  0.3402
 5031SOL     OW16542   1.223   1.700   6.813  0.4277 -0.0376 -0.4032
 5031SOL    HW116543   1.212   1.721   6.720  1.0764  0.1973 -0.4341
 5031SOL    HW216544   1.317   1.682   6.822  0.1298 -1.6099 -0.1120
 5032SOL     OW16545   0.044   2.947   3.550  1.1366 -0.4835  0.0387
 5032SOL    HW116546   0.091   3.011   3.496 -0.7619  0.4186 -0.6110
 5032SOL    HW216547   0.047   2.984   3.639  1.7799 -0.5326  0.0470
 5033SOL     OW16548   2.717   5.852   1.511  0.3855  0.6982 -0.3571
 5033SOL    HW116549   2.685   5.942   1.519  0.7183  0.6879  1.4238
 5033SOL    HW216550   2.805   5.861   1.475  0.3509  1.0766 -0.3499
 5034SOL     OW16551   0.570   2.128   5.956 -1.1260  0.2814  0.2071
 5034SOL    HW116552   0.476   2.146   5.964 -1.1114 -0.0882  1.5702
 5034SOL    HW216553   0.612   2.195   6.010 -0.6717 -0.1219  0.3638
 5035SOL     OW16554   0.169   4.592   1.271  0.0538 -0.1125 -0.2258
 5035SOL    HW116555   0.258   4.557   1.283  0.2999  0.5746 -0.0181
 5035SOL    HW216556   0.117   4.545   1.336  0.0039 -1.4127 -1.1570
 5036SOL     OW16557   5.971   3.803   2.684 -0.1398 -0.4882 -0.1406
 5036SOL    HW116558   5.984   3.712   2.710  1.6245 -0.5372 -1.0062
 5036SOL    HW216559   5.891   3.803   2.633 -1.3323 -1.1405  1.6348
 5037SOL     OW16560   0.237   3.027   0.848 -0.5406 -0.7605  0.5713
 5037SOL    HW116561   0.271   2.989   0.767 -0.3395 -0.3244  0.4514
 5037SOL    HW216562   0.306   3.087   0.877 -1.1645  0.0577  0.3792
 5038SOL     OW16563   2.328   5.811   1.496  0.7185  0.2494 -0.4127
 5038SOL    HW116564   2.261   5.808   1.564  1.3845 -0.1697  0.2356
 5038SOL    HW216565   2.347   5.904   1.485 -0.1165  0.3871 -0.7583
 5039SOL     OW16566   3.185   0.272   6.016 -0.1539 -0.5638  0.0554
 5039SOL    HW116567   3.280   0.268   6.000 -0.1908 -0.9508 -0.0665
 5039SOL    HW216568   3.166   0.193   6.066 -0.4935 -0.7358 -0.3387
 5040SOL     OW16569   6.590   6.666   1.015  0.1265  0.5861  0.4291
 5040SOL    HW116570   6.620   6.608   0.946  0.1012  1.0071  0.0574
 5040SOL    HW216571   6.665   6.724   1.033 -0.4441  1.6584 -0.5217
 5041SOL     OW16572   1.829   6.334   0.979 -0.0506  0.1640 -0.7334
 5041SOL    HW116573   1.736   6.353   0.992 -0.5741 -1.6924 -1.4804
 5041SOL    HW216574   1.863   6.320   1.068 -0.9709 -1.1353 -0.5643
 5042SOL     OW16575   4.679   3.637   4.532  0.5609  0.3825  0.1955
 5042SOL    HW116576   4.672   3.730   4.510  0.9738 -0.0100 -1.7193
 5042SOL    HW216577   4.650   3.633   4.623 -1.9438  2.0243 -0.4150
 5043SOL     OW16578   5.700   2.242   1.793 -0.3167 -0.4256 -0.5335
 5043SOL    HW116579   5.728   2.152   1.808 -0.5707 -0.3315  0.5716
 5043SOL    HW216580   5.605   2.240   1.803 -0.6262 -0.4847 -2.9350
 5044SOL     OW16581   0.742   3.350   4.841  0.0616 -0.3087 -0.5138
 5044SOL    HW116582   0.717   3.439   4.817  0.7667 -0.0394 -0.2872
 5044SOL    HW216583   0.663   3.311   4.878 -0.0078  0.5324  0.2448
 5045SOL     OW16584   0.183   2.101   0.693  0.4368  0.0553  0.1837
 5045SOL    HW116585   0.093   2.101   0.660  0.5905  2.7813 -0.4969
 5045SOL    HW216586   0.219   2.018   0.664 -1.0926  0.0229 -1.8562
 5046SOL     OW16587   1.967   6.794   6.771 -0.0614 -0.4099  0.2736
 5046SOL    HW116588   1.912   6.871   6.759 -1.5822 -1.6867 -1.7358
 5046SOL    HW216589   2.056   6.825   6.753 -0.5248  1.0266  0.3438
 5047SOL     OW16590   6.505   0.110   1.252  0.2229  0.5896  0.0589
 5047SOL    HW116591   6.435   0.161   1.210  0.5913 -0.2447 -1.6595
 5047SOL    HW216592   6.574   0.106   1.187  0.8322 -0.7840  0.7513
 5048SOL     OW16593   4.935   2.297   1.369 -0.2835 -0.2260  0.4308
 5048SOL    HW116594   4.851   2.254   1.353  0.2208 -0.6184 -1.3745
 5048SOL    HW216595   4.959   2.335   1.285  0.6136  1.2484  1.3131
 5049SOL     OW16596   2.417   3.818   4.002 -0.0753 -0.2528  0.2202
 5049SOL    HW116597   2.342   3.833   3.945  0.0403  0.3905  0.2318
 5049SOL    HW216598   2.395   3.738   4.050  0.0090 -1.0594 -1.0254
 5050SOL     OW16599   4.355   1.978   1.948 -0.5127 -0.2370 -0.5833
 5050SOL    HW116600   4.421   1.960   1.881  0.5170  1.4724 -0.0764
 5050SOL    HW216601   4.281   2.012   1.899  0.2883  1.1383 -0.8702
 5051SOL     OW16602   6.945   4.539   0.223  0.3853  0.2456 -0.8460
 5051SOL    HW116603   6.912   4.467   0.276  1.8008  0.5132  0.4403
 5051SOL    HW216604   7.033   4.511   0.196  0.0060  0.4558 -2.4258
 5052SOL     OW16605   6.571   2.580   6.677 -0.0200  0.3203 -0.5075
 5052SOL    HW116606   6.622   2.614   6.603 -0.1187 -1.3533 -1.3852
 5052SOL    HW216607   6.632   2.526   6.726  0.0796  1.5129  0.7662
 5053SOL     OW16608   1.312   2.745   6.372 -0.2970 -0.0863 -0.4940
 5053SOL    HW116609   1.232   2.764   6.421  0.6609  1.7275  0.4798
 5053SOL    HW216610   1.361   2.685   6.428 -0.7242 -0.7714 -0.8454
 5054SOL     OW16611   1.238   4.046   3.665 -0.3617  0.1207 -0.7893
 5054SOL    HW116612   1.270   4.111   3.602 -0.0401  0.2416 -0.5016
 5054SOL    HW216613   1.145   4.038   3.645 -0.2701  0.1861 -1.2568
 5055SOL     OW16614   3.822   4.276   5.549 -0.0948 -0.0209  0.2653
 5055SOL    HW116615   3.761   4.280   5.623 -0.6883 -0.3734 -0.1973
 5055SOL    HW216616   3.767   4.285   5.472  0.4267 -0.4520 -0.1644
 5056SOL     OW16617   3.815   5.025   3.753  0.1100 -0.2217  0.7839
 5056SOL    HW116618   3.906   5.035   3.723 -0.3407  0.0365 -0.5467
 5056SOL    HW216619   3.796   5.108   3.797 -0.4454  1.0469 -1.6619
 5057SOL     OW16620   3.811   4.984   5.010  0.0781 -0.6352 -0.6254
 5057SOL    HW116621   3.716   4.986   5.001  0.0051 -1.4397 -0.1411
 5057SOL    HW216622   3.827   4.917   5.077  0.9066  0.4137  0.2721
 5058SOL     OW16623   4.103   2.540   5.684  0.2039 -0.4235  0.1389
 5058SOL    HW116624   4.138   2.593   5.755  1.3920 -0.0051 -0.7291
 5058SOL    HW216625   4.118   2.592   5.605 -3.6475  0.4440 -0.2191
 5059SOL     OW16626   5.537   2.540   5.618  0.0790  0.2960  0.1801
 5059SOL    HW116627   5.619   2.514   5.661  0.1812 -0.6021 -0.5181
 5059SOL    HW216628   5.558   2.623   5.575  0.1764  0.8399  1.2494
 5060SOL     OW16629   0.243   6.467   0.472  0.1680 -0.0676  0.5415
 5060SOL    HW116630   0.314   6.523   0.504  0.5674 -0.1920 -0.1226
 5060SOL    HW216631   0.166   6.525   0.471  0.5641  0.4653 -0.0935
 5061SOL     OW16632   6.636   5.205   7.021 -0.0395 -0.2775  0.3450
 5061SOL    HW116633   6.716   5.236   7.063 -0.5085  1.9850 -0.2800
 5061SOL    HW216634   6.628   5.113   7.047  2.4887 -0.4186  0.7844
 5062SOL     OW16635   5.683   2.516   2.871  0.6815 -0.3103 -0.0503
 5062SOL    HW116636   5.759   2.457   2.875  0.8455 -0.2771 -1.8348
 5062SOL    HW216637   5.664   2.524   2.778 -0.6951  0.7643  0.2894
 5063SOL     OW16638   2.620   4.136   3.597  0.1170 -0.2235 -0.3024
 5063SOL    HW116639   2.649   4.114   3.509  3.1222 -0.1153  0.5527
 5063SOL    HW216640   2.583   4.054   3.631 -2.6101  0.1293 -2.0903
 5064SOL     OW16641   0.941   3.040   0.678 -0.0514 -0.2224  0.1491
 5064SOL    HW116642   0.998   3.054   0.754 -2.5194  0.3308  2.0240
 5064SOL    HW216643   0.919   3.127   0.647 -0.5272 -0.4122 -0.0548
 5065SOL     OW16644   5.669   4.758   6.800 -0.3910 -0.2007  0.2028
 5065SOL    HW116645   5.699   4.760   6.891  2.2526 -0.7083 -0.5962
 5065SOL    HW216646   5.650   4.849   6.779 -0.2114  0.0253  1.0078
 5066SOL     OW16647   5.817   5.471   5.053  0.3312 -0.2129 -0.3340
 5066SOL    HW116648   5.738   5.417   5.048 -1.1926  1.5224  2.3560
 5066SOL    HW216649   5.881   5.414   5.095  0.0115 -1.1255 -1.0341
 5067SOL     OW16650   1.821   0.476   4.086 -0.0260 -0.1640  0.0235
 5067SOL    HW116651   1.784   0.563   4.072 -1.6902 -1.1665 -2.3285
 5067SOL    HW216652   1.900   0.492   4.138 -0.6536  2.6516  0.2610
 5068SOL     OW16653   1.528   1.763   1.162 -0.1225  0.1651 -0.3453
 5068SOL    HW116654   1.493   1.709   1.233 -0.8088  1.3866  0.2969
 5068SOL    HW216655   1.600   1.712   1.126 -1.4718 -1.6606 -0.5572
 5069SOL     OW16656   5.297   0.427   2.834  0.1509 -0.4510  0.0270
 5069SOL    HW116657   5.299   0.474   2.918  1.8933  0.7795 -0.6278
 5069SOL    HW216658   5.274   0.337   2.857 -2.5342  0.4898  1.4276
 5070SOL     OW16659   3.114   5.419   0.740 -0.2263 -1.1145  0.3162
 5070SOL    HW116660   3.072   5.417   0.826  0.2682 -0.6802  0.5743
 5070SOL    HW216661   3.154   5.505   0.735 -0.1818 -1.1668 -0.3237
 5071SOL     OW16662   5.563   0.648   6.529  0.0119 -0.3943 -0.1872
 5071SOL    HW116663   5.508   0.579   6.491 -0.7037  0.7535 -1.3385
 5071SOL    HW216664   5.625   0.602   6.585 -2.4902 -1.7074  1.6646
 5072SOL     OW16665   0.612   0.317   1.756  0.1056  0.0120 -0.1531
 5072SOL    HW116666   0.678   0.347   1.819 -0.4331  0.5744  0.1595
 5072SOL    HW216667   0.589   0.395   1.706 -1.5908  0.2463  0.9192
 5073SOL     OW16668   2.281   2.791   0.735  0.4607  0.1712 -0.3578
 5073SOL    HW116669   2.289   2.706   0.693 -0.7264  0.1358 -0.5434
 5073SOL    HW216670   2.222   2.776   0.809 -0.2696  0.9449 -0.7634
 5074SOL     OW16671   0.245   5.063   3.185  0.1986  0.0593  0.4158
 5074SOL    HW116672   0.316   5.004   3.158  1.2928  1.1781  0.7804
 5074SOL    HW216673   0.166   5.026   3.144  1.1260 -0.7052 -0.7354
 5075SOL     OW16674   3.301   0.617   4.600 -0.1217 -0.4728 -0.0686
 5075SOL    HW116675   3.238   0.554   4.567  0.0002 -0.7827  0.2727
 5075SOL    HW216676   3.251   0.672   4.661 -0.1938 -0.3395 -0.2488
 5076SOL     OW16677   5.686   6.150   5.480  0.1876 -0.2260 -0.1291
 5076SOL    HW116678   5.596   6.172   5.505  0.8803  0.7805  1.6133
 5076SOL    HW216679   5.687   6.054   5.479 -0.5977 -0.2694  1.0805
 5077SOL     OW16680   1.547   4.824   4.922 -0.0302  0.2106  0.0569
 5077SOL    HW116681   1.640   4.844   4.909 -0.0828 -0.6730 -2.1437
 5077SOL    HW216682   1.501   4.903   4.892 -0.0247  0.0997 -0.2435
 5078SOL     OW16683   1.116   6.048   5.529 -0.1706  0.2529  0.2311
 5078SOL    HW116684   1.091   6.018   5.442  0.1050  1.4562 -0.2908
 5078SOL    HW216685   1.043   6.023   5.585 -0.5109 -0.2202 -0.4084
 5079SOL     OW16686   0.899   2.592   4.598 -0.0377  0.1293 -0.9815
 5079SOL    HW116687   0.856   2.611   4.515 -1.2528 -2.0016 -0.9159
 5079SOL    HW216688   0.860   2.509   4.627  1.5121 -0.0094  0.9275
 5080SOL     OW16689   1.693   3.833   4.965  0.2134 -0.2984  0.4329
 5080SOL    HW116690   1.624   3.872   4.911  0.4302 -0.9259 -0.3197
 5080SOL    HW216691   1.774   3.857   4.920  0.3037 -2.8273 -0.9415
 5081SOL     OW16692   3.060   6.400   5.021 -0.1077 -0.6488 -0.6419
 5081SOL    HW116693   2.987   6.435   5.072  0.2749  0.8936 -1.0816
 5081SOL    HW216694   3.136   6.412   5.077  0.0737 -0.5056 -0.9187
 5082SOL     OW16695   5.058   5.630   5.777  0.1027 -0.7857 -0.2874
 5082SOL    HW116696   4.968   5.599   5.765  0.1356 -1.6556  1.3391
 5082SOL    HW216697   5.098   5.623   5.690 -0.6551 -2.9813 -0.5393
 5083SOL     OW16698   3.070   0.387   2.903 -0.8739  0.0729  0.3703
 5083SOL    HW116699   3.062   0.435   2.986 -0.8074 -1.0158  1.0227
 5083SOL    HW216700   3.057   0.296   2.927 -1.8908 -0.1671 -1.0005
 5084SOL     OW16701   1.424   4.981   6.038  0.3763 -0.2912  0.2392
 5084SOL    HW116702   1.481   5.058   6.037 -0.7714  0.6130  0.7545
 5084SOL    HW216703   1.479   4.910   6.071  1.5110  0.2543 -0.4238
 5085SOL     OW16704   4.228   3.157   2.970 -0.3907 -0.4011  0.0114
 5085SOL    HW116705   4.191   3.239   2.937 -0.6674 -0.6472 -0.3007
 5085SOL    HW216706   4.308   3.145   2.918 -1.2540 -1.2121 -1.1954
 5086SOL     OW16707   0.935   6.398   6.948  0.2515  0.0141  0.0499
 5086SOL    HW116708   0.904   6.311   6.975 -0.3305 -0.1286 -1.0098
 5086SOL    HW216709   1.002   6.421   7.013  1.7458 -2.0184 -0.6651
 5087SOL     OW16710   6.301   4.343   3.736  0.1272  0.0967 -0.5698
 5087SOL    HW116711   6.257   4.308   3.659 -0.7014  0.6803 -0.3745
 5087SOL    HW216712   6.389   4.366   3.706  0.1006 -0.5122 -1.1155
 5088SOL     OW16713   6.022   5.226   1.580 -0.3004  0.3639 -0.0591
 5088SOL    HW116714   6.068   5.310   1.569  0.9642 -0.3510 -0.3900
 5088SOL    HW216715   6.088   5.167   1.615 -1.2378 -0.4563  0.3618
 5089SOL     OW16716   3.063   1.352   2.110 -0.0715 -0.3713  0.8637
 5089SOL    HW116717   2.995   1.419   2.116  0.9493  1.1168 -2.0634
 5089SOL    HW216718   3.028   1.287   2.048  0.7505 -0.0568  0.0412
 5090SOL     OW16719   1.391   6.972   3.144 -0.0798 -0.0698  0.6664
 5090SOL    HW116720   1.298   6.995   3.147 -0.5465 -1.6439 -0.4857
 5090SOL    HW216721   1.401   6.907   3.214  0.3456  0.6439  1.2857
 5091SOL     OW16722   1.691   4.587   5.596  0.1526  0.4572 -0.2646
 5091SOL    HW116723   1.649   4.504   5.576 -0.5035  0.6467  0.3005
 5091SOL    HW216724   1.758   4.565   5.660 -0.5163  0.4660  0.4490
 5092SOL     OW16725   4.075   4.391   2.196  0.1797  0.4193  0.2820
 5092SOL    HW116726   3.984   4.374   2.220  0.2284  1.3072  1.1611
 5092SOL    HW216727   4.097   4.323   2.132 -0.7143 -0.5540  0.9961
 5093SOL     OW16728   6.622   0.716   0.803 -0.6034 -0.1788 -0.3446
 5093SOL    HW116729   6.715   0.729   0.785 -0.6306 -0.7676 -0.9731
 5093SOL    HW216730   6.619   0.638   0.858 -0.8214 -1.3072 -1.8874
 5094SOL     OW16731   1.809   5.725   1.955 -0.3869  0.0121  0.2971
 5094SOL    HW116732   1.856   5.711   1.872 -0.8082  2.5927 -0.4750
 5094SOL    HW216733   1.739   5.661   1.954  0.7628 -1.2922 -0.4068
 5095SOL     OW16734   1.139   2.649   4.407  0.2712 -0.0072  0.5649
 5095SOL    HW116735   1.085   2.606   4.473  1.7762  1.1712  2.6842
 5095SOL    HW216736   1.083   2.654   4.329 -1.3543 -2.0012  1.5285
 5096SOL     OW16737   1.213   3.058   2.531  0.1620  0.1202 -0.1097
 5096SOL    HW116738   1.125   3.086   2.555  0.3449  0.3185  0.3403
 5096SOL    HW216739   1.238   3.117   2.460  0.4213  0.9011  0.6176
 5097SOL     OW16740   0.827   5.763   0.692  0.3128 -0.2289 -0.3103
 5097SOL    HW116741   0.904   5.712   0.666  1.1128 -0.0189  1.5324
 5097SOL    HW216742   0.759   5.697   0.709  0.5175 -0.4949 -0.5120
 5098SOL     OW16743   6.566   6.389   4.966  0.4259 -0.0594  0.4572
 5098SOL    HW116744   6.507   6.321   4.998  0.3219 -0.8005 -1.2433
 5098SOL    HW216745   6.653   6.349   4.971  0.5827  0.3385  1.1138
 5099SOL     OW16746   5.841   4.673   6.113  0.3204  0.0347 -0.2795
 5099SOL    HW116747   5.794   4.629   6.184  0.4676  0.3903  0.0383
 5099SOL    HW216748   5.827   4.616   6.037 -0.9470  0.3199 -0.2893
 5100SOL     OW16749   5.906   1.462   1.768 -0.2411  0.2065  0.3900
 5100SOL    HW116750   5.886   1.524   1.837  0.7483  2.2987 -1.0900
 5100SOL    HW216751   5.845   1.483   1.697 -0.4288 -1.0703  0.1387
 5101SOL     OW16752   6.802   2.743   1.091  0.0173  0.0150 -0.5110
 5101SOL    HW116753   6.829   2.731   1.000  0.2525  3.9958 -1.1445
 5101SOL    HW216754   6.846   2.822   1.120 -0.3697 -0.8612  3.0226
 5102SOL     OW16755   1.671   6.959   1.756  0.3227 -0.3166 -0.3886
 5102SOL    HW116756   1.646   6.870   1.729 -0.4653 -0.6791  1.3418
 5102SOL    HW216757   1.766   6.955   1.769  0.2575 -1.0077 -0.0615
 5103SOL     OW16758   6.970   2.111   2.722 -0.4277 -0.2252  0.3555
 5103SOL    HW116759   6.958   2.186   2.780  1.5868  1.5706 -1.3731
 5103SOL    HW216760   7.029   2.053   2.769  1.3332  1.2982  0.1692
 5104SOL     OW16761   4.393   3.423   2.351  0.1995  0.2155 -0.2722
 5104SOL    HW116762   4.449   3.346   2.362 -0.1437 -0.2968 -1.8563
 5104SOL    HW216763   4.448   3.485   2.302 -0.3076  0.0486 -1.0633
 5105SOL     OW16764   7.083   5.711   2.547 -0.0791  0.3608  0.2185
 5105SOL    HW116765   7.029   5.673   2.616 -1.7782 -1.5283 -1.9938
 5105SOL    HW216766   7.138   5.638   2.517  0.7944  1.2127 -0.3154
 5106SOL     OW16767   0.762   2.612   2.186 -0.2563 -0.4739 -0.1873
 5106SOL    HW116768   0.718   2.697   2.179 -0.0510 -0.4701 -1.6875
 5106SOL    HW216769   0.805   2.615   2.272  0.7701  1.4564 -0.6884
 5107SOL     OW16770   0.081   1.039   2.009 -0.4693  0.4574  0.3788
 5107SOL    HW116771   0.019   0.983   1.962 -0.0579 -0.0385  0.4256
 5107SOL    HW216772   0.166   0.997   1.997 -0.0366  1.4448 -0.1682
 5108SOL     OW16773   2.625   4.433   4.455  0.2672  0.4217  0.7463
 5108SOL    HW116774   2.712   4.421   4.416 -0.4391 -0.4540 -0.6676
 5108SOL    HW216775   2.588   4.507   4.407 -0.4299 -0.3516  0.0730
 5109SOL     OW16776   3.305   1.374   4.667  0.0825  0.7442 -0.2736
 5109SOL    HW116777   3.239   1.305   4.668 -0.2006  1.0143  0.2768
 5109SOL    HW216778   3.359   1.355   4.590  3.0329 -2.9329  2.3145
 5110SOL     OW16779   0.308   6.482   2.070 -0.1177  0.2984  0.2649
 5110SOL    HW116780   0.237   6.474   2.133 -0.6236  0.2954 -0.2999
 5110SOL    HW216781   0.264   6.493   1.986  0.5518  0.2967 -0.0875
 5111SOL     OW16782   6.712   3.221   1.800  0.3451 -0.2842  0.1502
 5111SOL    HW116783   6.664   3.195   1.721  1.0340 -1.8612  0.1971
 5111SOL    HW216784   6.772   3.148   1.816  0.3023  0.0525  2.0804
 5112SOL     OW16785   5.137   3.589   0.595 -0.0482 -0.1475 -0.2648
 5112SOL    HW116786   5.094   3.556   0.674  0.3042  0.4355  0.1803
 5112SOL    HW216787   5.097   3.541   0.523  0.7966 -1.9078  0.3953
 5113SOL     OW16788   6.305   3.101   4.817  0.5917 -0.0185  0.3172
 5113SOL    HW116789   6.261   3.019   4.840  1.0485 -1.0463 -2.1553
 5113SOL    HW216790   6.329   3.140   4.901 -2.1479 -0.9884  1.6546
 5114SOL     OW16791   1.959   6.242   1.207  0.1103 -0.2194 -0.1816
 5114SOL    HW116792   2.041   6.235   1.159  1.1536  0.5500  1.4120
 5114SOL    HW216793   1.970   6.319   1.263 -1.7029 -0.1027  0.0715
 5115SOL     OW16794   0.997   4.552   2.852  0.1851  0.1085 -0.4818
 5115SOL    HW116795   0.940   4.506   2.913  0.7156 -0.8488 -0.6894
 5115SOL    HW216796   1.084   4.518   2.869  0.3038 -0.3941 -1.9492
 5116SOL     OW16797   3.540   2.392   3.032  0.4610 -0.2127  0.7310
 5116SOL    HW116798   3.557   2.302   3.058 -1.6387 -0.2154  2.3521
 5116SOL    HW216799   3.626   2.434   3.033  1.4462 -2.1286  0.0786
 5117SOL     OW16800   6.552   4.895   0.188 -0.2999  0.1277 -0.3033
 5117SOL    HW116801   6.479   4.929   0.239  1.3073 -0.1025  2.3133
 5117SOL    HW216802   6.528   4.912   0.097 -3.2186  0.7538  0.4989
 5118SOL     OW16803   4.388   6.122   1.896 -0.6916 -0.3986 -0.2158
 5118SOL    HW116804   4.388   6.140   1.802  0.7680 -0.4660 -0.2541
 5118SOL    HW216805   4.442   6.043   1.906  1.0792  0.8520  0.8403
 5119SOL     OW16806   5.438   5.024   0.524  0.3941 -0.2015  0.6402
 5119SOL    HW116807   5.423   4.951   0.585  0.3213  0.8158  1.8754
 5119SOL    HW216808   5.363   5.082   0.538  1.3160  0.9563  0.9418
 5120SOL     OW16809   3.519   2.396   4.607  0.1761  0.0400 -0.1481
 5120SOL    HW116810   3.461   2.320   4.615  0.2631  0.0266  0.3978
 5120SOL    HW216811   3.573   2.393   4.686 -0.1110  0.9095  0.0878
 5121SOL     OW16812   0.427   1.319   6.577  0.6154  0.3682 -0.0626
 5121SOL    HW116813   0.513   1.351   6.604  0.1600  1.3350  0.2931
 5121SOL    HW216814   0.386   1.393   6.533 -0.4886  0.3207  0.8319
 5122SOL     OW16815   1.378   2.148   6.255 -0.3621  0.4000  0.0507
 5122SOL    HW116816   1.294   2.167   6.297  0.4184 -0.4513  2.1549
 5122SOL    HW216817   1.406   2.065   6.294  2.2113  1.4634  0.6849
 5123SOL     OW16818   6.501   0.540   1.808 -0.5683  0.3482 -0.4814
 5123SOL    HW116819   6.473   0.507   1.894  0.4763  1.0514  0.1634
 5123SOL    HW216820   6.537   0.463   1.764  0.3303  0.2690  0.3492
 5124SOL     OW16821   0.675   1.590   5.710 -0.2197  0.1314 -0.5463
 5124SOL    HW116822   0.627   1.657   5.661 -0.3472  0.8706  0.5358
 5124SOL    HW216823   0.620   1.573   5.787  0.3451 -0.4187 -0.2546
 5125SOL     OW16824   2.984   3.892   3.383  0.1763  0.3716 -0.0493
 5125SOL    HW116825   2.990   3.850   3.298 -0.5102  0.6966 -0.2665
 5125SOL    HW216826   2.890   3.902   3.399  0.2834 -0.0224  0.9136
 5126SOL     OW16827   1.374   3.397   4.235 -0.3924  0.1537  0.5369
 5126SOL    HW116828   1.465   3.388   4.262 -0.6904  0.0255  1.5172
 5126SOL    HW216829   1.339   3.308   4.238 -1.1111  0.4512  2.2444
 5127SOL     OW16830   0.604   0.537   1.604  0.4199  0.3346  0.0239
 5127SOL    HW116831   0.695   0.559   1.622  0.3084  2.0772 -1.3500
 5127SOL    HW216832   0.587   0.573   1.517 -1.1208 -1.4234 -0.4667
 5128SOL     OW16833   5.803   6.660   3.737 -0.0337 -0.6190 -0.2441
 5128SOL    HW116834   5.873   6.715   3.703  0.8546 -1.4418  0.1963
 5128SOL    HW216835   5.809   6.579   3.687  1.5727 -2.0201  2.0212
 5129SOL     OW16836   3.360   2.834   6.656  0.0886  0.2941  0.5640
 5129SOL    HW116837   3.412   2.819   6.578 -0.3432  0.9306  0.1472
 5129SOL    HW216838   3.346   2.747   6.693 -0.5199 -0.1282 -0.5976
 5130SOL     OW16839   1.151   0.088   6.578  0.4948 -0.0579  0.3187
 5130SOL    HW116840   1.106   0.005   6.594 -0.8158  0.5178 -0.2669
 5130SOL    HW216841   1.173   0.086   6.485 -0.7201  0.7921 -0.0061
 5131SOL     OW16842   5.514   0.530   5.957  0.0473 -0.0751 -0.1368
 5131SOL    HW116843   5.548   0.536   6.046  1.2165  0.0900 -0.5843
 5131SOL    HW216844   5.513   0.436   5.937  1.6826 -0.0131 -0.6436
 5132SOL     OW16845   6.884   6.805   3.397 -0.4564  0.5016 -0.2446
 5132SOL    HW116846   6.896   6.855   3.478 -1.8275 -0.3848  0.5614
 5132SOL    HW216847   6.964   6.821   3.347  0.5375  0.9075  1.3716
 5133SOL     OW16848   3.500   4.575   5.041  0.5955  0.4686  0.2023
 5133SOL    HW116849   3.418   4.624   5.054 -0.5990 -1.4172  0.1089
 5133SOL    HW216850   3.475   4.484   5.054  2.7284 -0.1490  0.2273
 5134SOL     OW16851   2.425   2.345   1.196 -0.6326 -0.1862  0.7650
 5134SOL    HW116852   2.343   2.388   1.220  0.1149  2.3243 -0.7668
 5134SOL    HW216853   2.449   2.383   1.111  1.6695 -1.4879  0.7205
 5135SOL     OW16854   1.708   5.324   4.545 -0.3439 -0.3612 -0.6562
 5135SOL    HW116855   1.768   5.350   4.614 -0.2490 -1.2447 -0.3928
 5135SOL    HW216856   1.621   5.340   4.581 -0.2876 -0.3041 -0.5452
 5136SOL     OW16857   3.224   0.400   2.088 -0.0622 -0.1733  0.3119
 5136SOL    HW116858   3.239   0.391   2.182  0.1385  2.0501  0.5442
 5136SOL    HW216859   3.154   0.465   2.081 -0.1906 -0.4336 -1.0673
 5137SOL     OW16860   3.726   1.762   1.081 -0.4799  0.1524 -0.5034
 5137SOL    HW116861   3.659   1.755   1.013  0.2273 -3.1568 -1.0302
 5137SOL    HW216862   3.806   1.732   1.039  0.7075  1.1462  0.9524
 5138SOL     OW16863   2.456   3.339   0.566  0.1114  0.2291 -0.2466
 5138SOL    HW116864   2.464   3.396   0.642 -1.0301  0.0981 -0.0198
 5138SOL    HW216865   2.362   3.327   0.554  0.2925 -0.2414 -1.3135
 5139SOL     OW16866   1.303   5.912   3.381  0.5376  0.1999 -0.1709
 5139SOL    HW116867   1.352   5.852   3.437  0.6330  2.4965  2.3883
 5139SOL    HW216868   1.353   5.993   3.382 -0.6788  1.0379 -1.7986
 5140SOL     OW16869   7.044   3.065   6.085  0.1050  0.7934  0.3534
 5140SOL    HW116870   7.090   2.989   6.120 -1.1237 -0.4600 -0.6512
 5140SOL    HW216871   7.011   3.111   6.162  0.2141 -0.1036  0.9461
 5141SOL     OW16872   0.583   3.403   2.316 -0.5181  0.1943  0.3495
 5141SOL    HW116873   0.500   3.368   2.284 -0.7810  0.4886  0.7012
 5141SOL    HW216874   0.570   3.498   2.317 -0.2982  0.2241  0.7374
 5142SOL     OW16875   3.264   6.100   1.200 -0.2971  0.4361 -0.3641
 5142SOL    HW116876   3.276   6.195   1.190 -0.2532  0.5622  0.7429
 5142SOL    HW216877   3.169   6.089   1.205 -0.4249  0.1851 -2.3718
 5143SOL     OW16878   1.301   6.313   2.872  0.1134 -0.3334  0.1548
 5143SOL    HW116879   1.344   6.347   2.794  1.2207 -0.5233  0.6715
 5143SOL    HW216880   1.249   6.238   2.840 -0.7222  0.5520 -0.6423
 5144SOL     OW16881   6.597   6.993   2.863 -0.2473  0.3670 -0.1614
 5144SOL    HW116882   6.527   7.004   2.927 -1.0402  0.5867 -1.0471
 5144SOL    HW216883   6.649   7.073   2.870 -1.2386  1.0896 -0.8612
 5145SOL     OW16884   6.859   6.705   5.515 -0.0356 -0.0148 -0.4094
 5145SOL    HW116885   6.808   6.738   5.442 -0.0015  2.1340  0.4818
 5145SOL    HW216886   6.928   6.770   5.528  0.3725 -0.6959  1.0878
 5146SOL     OW16887   6.017   4.030   0.693 -0.4528  0.5233  0.3421
 5146SOL    HW116888   5.965   3.952   0.673  0.8022 -0.4159  0.6638
 5146SOL    HW216889   6.035   4.069   0.607 -0.6182  0.1594  0.1398
 5147SOL     OW16890   1.635   4.653   1.665 -0.0021 -0.1557 -0.4244
 5147SOL    HW116891   1.607   4.587   1.602  0.0808 -1.3587  0.7602
 5147SOL    HW216892   1.579   4.639   1.741 -0.4046  1.5610 -0.3641
 5148SOL     OW16893   5.792   3.126   4.919 -0.5564  0.2040 -0.1424
 5148SOL    HW116894   5.815   3.189   4.987  1.0549  0.1239 -0.5739
 5148SOL    HW216895   5.765   3.180   4.845 -0.2715  0.3522 -0.1397
 5149SOL     OW16896   6.850   4.751   1.269 -0.2531 -0.1908  0.0398
 5149SOL    HW116897   6.818   4.765   1.358 -0.0323 -1.3445  0.3176
 5149SOL    HW216898   6.774   4.771   1.213 -0.0094  1.8552  0.3688
 5150SOL     OW16899   0.530   0.894   1.142 -0.2196 -0.6773  0.4774
 5150SOL    HW116900   0.565   0.806   1.131 -0.5142 -0.7909  0.4550
 5150SOL    HW216901   0.523   0.929   1.053  0.6587 -0.3347  0.5369
 5151SOL     OW16902   4.520   5.454   2.760  0.1628 -0.6772  0.0318
 5151SOL    HW116903   4.456   5.417   2.820  1.8113 -3.6552  0.1346
 5151SOL    HW216904   4.475   5.455   2.675 -0.5785 -1.0429  0.4137
 5152SOL     OW16905   3.865   4.677   1.585  0.1251  0.7297  0.3049
 5152SOL    HW116906   3.830   4.720   1.506 -1.5039 -0.0258  0.5649
 5152SOL    HW216907   3.788   4.659   1.638  1.1348  0.5836  1.7718
 5153SOL     OW16908   3.572   4.998   0.964 -0.1935  0.6526 -0.0755
 5153SOL    HW116909   3.595   5.089   0.947  0.8759  0.8924  2.2160
 5153SOL    HW216910   3.656   4.954   0.979 -0.7832 -0.2549  0.7579
 5154SOL     OW16911   0.547   5.175   4.402  0.6085 -0.2654 -0.0500
 5154SOL    HW116912   0.578   5.165   4.312  0.0842  0.9603 -0.3921
 5154SOL    HW216913   0.550   5.270   4.418 -2.4812 -0.0725  0.0186
 5155SOL     OW16914   2.260   3.254   7.025 -0.0726 -0.3985  0.0135
 5155SOL    HW116915   2.217   3.180   6.982 -0.9031 -0.0616  0.2449
 5155SOL    HW216916   2.295   3.217   7.107  2.1402 -1.2101 -1.2189
 5156SOL     OW16917   6.833   3.378   1.523  0.2723 -0.2131  0.0417
 5156SOL    HW116918   6.829   3.438   1.598 -0.1563  0.7542 -0.7204
 5156SOL    HW216919   6.817   3.292   1.560 -1.1411  0.3874  0.9053
 5157SOL     OW16920   1.072   3.173   7.018  0.1017  0.2177 -0.6031
 5157SOL    HW116921   1.129   3.131   7.083 -0.3905 -2.5098 -1.8308
 5157SOL    HW216922   1.057   3.261   7.054  0.5569 -0.8479  2.5094
 5158SOL     OW16923   3.330   0.218   0.022 -0.4013  0.4319  0.2111
 5158SOL    HW116924   3.395   0.218   0.091  1.0113 -0.5094 -1.0459
 5158SOL    HW216925   3.380   0.228  -0.059 -2.0341  2.1275 -0.6837
 5159SOL     OW16926   6.569   5.468   3.414 -0.0994  0.5605 -0.6185
 5159SOL    HW116927   6.643   5.418   3.379 -0.4759 -0.6787  0.2814
 5159SOL    HW216928   6.527   5.506   3.337  0.8338  0.3681 -1.2328
 5160SOL     OW16929   3.352   6.196   1.913 -0.8213  0.3371 -0.7462
 5160SOL    HW116930   3.412   6.268   1.928  0.0279 -0.4389 -0.3234
 5160SOL    HW216931   3.319   6.209   1.825 -1.0637  1.5093 -0.4964
 5161SOL     OW16932   1.580   1.992   3.016  0.0384  0.0057 -0.6165
 5161SOL    HW116933   1.494   2.025   2.990  0.0017  1.3854  1.0617
 5161SOL    HW216934   1.639   2.023   2.947 -0.1899  2.7264  0.2839
 5162SOL     OW16935   1.650   6.816   0.163  0.4213 -0.3620  0.2430
 5162SOL    HW116936   1.683   6.800   0.075 -0.3121 -1.1741  0.1098
 5162SOL    HW216937   1.720   6.866   0.206  1.0919 -0.5906 -0.5651
 5163SOL     OW16938   3.298   1.574   0.486 -0.0523 -0.5247  0.2483
 5163SOL    HW116939   3.287   1.662   0.522 -0.6985 -1.1811  1.7021
 5163SOL    HW216940   3.390   1.572   0.457  0.0016  0.5750  0.3034
 5164SOL     OW16941   1.257   5.328   5.147  0.4572  0.2100 -0.3486
 5164SOL    HW116942   1.299   5.289   5.224 -0.8241  0.2209  0.3770
 5164SOL    HW216943   1.269   5.422   5.158 -1.0908  0.3243  0.7008
 5165SOL     OW16944   4.855   6.163   4.368 -0.1454 -0.0121  0.8899
 5165SOL    HW116945   4.913   6.222   4.415  0.7211  1.1077 -1.4120
 5165SOL    HW216946   4.771   6.172   4.412  0.0431  2.7226  0.8677
 5166SOL     OW16947   3.326   3.991   5.729  0.1878 -0.1279  0.5260
 5166SOL    HW116948   3.237   3.990   5.763  0.0658 -0.9894  0.2116
 5166SOL    HW216949   3.380   4.019   5.804 -0.4350  1.3930  0.4372
 5167SOL     OW16950   7.119   3.533   4.967  0.0285  0.5423 -0.4703
 5167SOL    HW116951   7.109   3.589   4.890 -0.2339 -0.2564 -1.0284
 5167SOL    HW216952   7.212   3.539   4.989  0.1318  0.6756 -0.9332
 5168SOL     OW16953   2.679   1.017   6.225  0.6624 -0.6663  0.4873
 5168SOL    HW116954   2.702   0.945   6.284  2.0147  0.5147  1.4784
 5168SOL    HW216955   2.606   1.061   6.270  0.7578 -0.5962  0.5733
 5169SOL     OW16956   0.556   6.270   4.539  0.0530  0.2014  0.0346
 5169SOL    HW116957   0.597   6.331   4.601  0.3831 -0.9515  0.9690
 5169SOL    HW216958   0.509   6.327   4.478  0.4500  1.4036  0.8151
 5170SOL     OW16959   2.528   2.516   6.670 -0.5189  0.2504  0.2354
 5170SOL    HW116960   2.472   2.591   6.648  1.4515  0.7556 -3.9285
 5170SOL    HW216961   2.617   2.549   6.659  0.4783 -1.9897  1.1122
 5171SOL     OW16962   0.309   2.266   1.073 -0.5594  0.1286 -0.0884
 5171SOL    HW116963   0.352   2.210   1.009  0.7533  1.8535 -0.8081
 5171SOL    HW216964   0.230   2.218   1.098 -1.2534 -0.5809 -3.1552
 5172SOL     OW16965   1.223   3.711   6.680 -0.2999  0.3335  0.4758
 5172SOL    HW116966   1.186   3.772   6.743 -1.2335  0.5409 -0.2503
 5172SOL    HW216967   1.316   3.708   6.702 -0.6894 -0.0326  2.2036
 5173SOL     OW16968   1.774   0.744   6.729  0.4974 -0.5000 -0.1319
 5173SOL    HW116969   1.857   0.772   6.690  0.1820  0.7725  0.0738
 5173SOL    HW216970   1.710   0.757   6.659  0.3124 -0.5147  0.0355
 5174SOL     OW16971   6.895   4.800   0.299  0.2544  0.1000 -0.4580
 5174SOL    HW116972   6.922   4.708   0.291  1.1828  0.2615  0.4885
 5174SOL    HW216973   6.806   4.796   0.333  0.2304 -0.4491 -0.5703
 5175SOL     OW16974   3.832   5.908   4.953  0.2890 -0.1281 -0.3694
 5175SOL    HW116975   3.773   5.857   5.009  0.4613  1.1658  1.0859
 5175SOL    HW216976   3.774   5.967   4.905  0.3097  1.2223  1.1451
 5176SOL     OW16977   2.563   2.376   6.414  0.4744 -0.1753 -0.4618
 5176SOL    HW116978   2.544   2.394   6.506  0.9688 -0.8318 -0.2195
 5176SOL    HW216979   2.478   2.370   6.372  0.1721 -1.5637  0.2950
 5177SOL     OW16980   1.971   4.919   4.412 -0.0041 -0.1069  0.1216
 5177SOL    HW116981   1.996   5.002   4.451  1.1136 -0.1204 -0.5460
 5177SOL    HW216982   1.990   4.854   4.479  1.0583 -0.0324 -0.0969
 5178SOL     OW16983   6.548   0.645   4.002 -0.9893 -0.8129  0.4719
 5178SOL    HW116984   6.620   0.608   3.950 -1.2027  1.1586 -1.3873
 5178SOL    HW216985   6.469   0.613   3.958 -1.1843 -0.0703  0.2644
 5179SOL     OW16986   0.511   5.780   2.654 -0.3332 -0.2879 -0.2552
 5179SOL    HW116987   0.467   5.846   2.600  0.5938  0.2966 -0.3105
 5179SOL    HW216988   0.507   5.814   2.743  2.7996  1.4228 -0.6266
 5180SOL     OW16989   2.095   6.526   5.419  0.5769  0.5466 -0.2908
 5180SOL    HW116990   2.078   6.532   5.325  1.5519  0.2355 -0.4976
 5180SOL    HW216991   2.189   6.539   5.427  0.7162 -0.7463  0.5162
 5181SOL     OW16992   3.364   2.285   0.799  0.0188  0.5746  0.3502
 5181SOL    HW116993   3.403   2.228   0.733  0.6503  1.4679 -0.0640
 5181SOL    HW216994   3.284   2.318   0.757 -0.9616 -0.8606  1.0118
 5182SOL     OW16995   5.382   5.098   1.946 -0.4386  0.2553 -0.1006
 5182SOL    HW116996   5.451   5.055   1.997 -0.0198  0.4058 -0.5269
 5182SOL    HW216997   5.411   5.189   1.940 -1.2561  0.5831  0.6968
 5183SOL     OW16998   4.324   6.825   4.444  0.2949  0.1296 -0.1282
 5183SOL    HW116999   4.245   6.878   4.435  0.9616  1.4247  1.2109
 5183SOL    HW217000   4.322   6.794   4.534  1.2108  0.0346 -0.1293
 5184SOL     OW17001   5.881   0.866   3.844 -0.2967  0.5930  0.5022
 5184SOL    HW117002   5.906   0.926   3.774 -1.4837  0.2157 -0.2782
 5184SOL    HW217003   5.793   0.837   3.820  0.6933 -2.4361  0.1653
 5185SOL     OW17004   2.732   1.522   0.018  1.0165 -0.0695  0.2852
 5185SOL    HW117005   2.781   1.564  -0.052 -0.4207  0.6067 -0.3690
 5185SOL    HW217006   2.712   1.592   0.080 -0.0178 -0.0839 -0.0040
 5186SOL     OW17007   2.516   5.442   3.104  0.0117  0.4974  0.0846
 5186SOL    HW117008   2.579   5.369   3.101  0.0530  0.4690  1.3322
 5186SOL    HW217009   2.454   5.422   3.034 -1.0330 -1.7520  1.5394
 5187SOL     OW17010   2.125   4.305   6.537 -0.0243 -0.1193 -0.1718
 5187SOL    HW117011   2.056   4.341   6.481  0.1737  0.9610  0.2582
 5187SOL    HW217012   2.106   4.340   6.624 -0.7405 -2.3401  0.6256
 5188SOL     OW17013   0.506   1.672   0.044 -0.4933 -0.1135  0.1187
 5188SOL    HW117014   0.425   1.695   0.089  0.5772  0.8844  1.6282
 5188SOL    HW217015   0.538   1.595   0.092  1.2037  1.5913  1.8893
 5189SOL     OW17016   6.829   0.192   1.671 -0.1274 -0.3117 -0.3689
 5189SOL    HW117017   6.837   0.131   1.743  0.8011  0.4280  0.1794
 5189SOL    HW217018   6.918   0.203   1.638 -0.0072  1.8382  0.4998
 5190SOL     OW17019   0.359   2.184   0.369 -0.8976  0.6665  0.1598
 5190SOL    HW117020   0.285   2.129   0.394 -1.6767  0.3052 -2.5916
 5190SOL    HW217021   0.325   2.239   0.298  1.4119  0.6516 -1.0606
 5191SOL     OW17022   1.896   5.145   7.110  0.2087  0.3769 -0.5343
 5191SOL    HW117023   1.859   5.191   7.034 -1.3936 -0.5480 -0.3548
 5191SOL    HW217024   1.825   5.145   7.174  0.9276 -0.4635  0.2701
 5192SOL     OW17025   4.950   4.612   4.969 -0.3496  0.2917 -0.5029
 5192SOL    HW117026   4.915   4.638   5.054 -0.2659 -1.6414  0.1675
 5192SOL    HW217027   5.021   4.551   4.990 -2.1939 -2.5494 -1.9105
 5193SOL     OW17028   5.059   1.961   1.947  0.1246  0.3942  0.0128
 5193SOL    HW117029   5.074   1.954   1.853  1.9712 -0.9379  0.3323
 5193SOL    HW217030   5.036   2.053   1.961  0.2842  0.7271 -1.6675
 5194SOL     OW17031   6.489   3.319   6.465 -0.2216  0.0392 -0.0446
 5194SOL    HW117032   6.433   3.279   6.532 -0.5917  0.4480 -0.1038
 5194SOL    HW217033   6.470   3.413   6.472  0.3008  0.1558 -0.2133
 5195SOL     OW17034   4.690   5.828   0.148 -0.1276  0.2423  0.0419
 5195SOL    HW117035   4.750   5.835   0.222  1.6851 -0.5204 -1.2896
 5195SOL    HW217036   4.669   5.734   0.143  2.1259 -0.2606 -2.0855
 5196SOL     OW17037   4.754   2.258   4.952  0.0186  0.3586  0.5257
 5196SOL    HW117038   4.840   2.278   4.989 -0.0647 -0.5715  1.2822
 5196SOL    HW217039   4.722   2.341   4.916  1.9825  0.3617 -1.3799
 5197SOL     OW17040   4.799   6.057   3.720 -0.8731  0.5052  0.6390
 5197SOL    HW117041   4.750   6.123   3.770 -2.8694  1.8656 -2.7591
 5197SOL    HW217042   4.809   6.096   3.633  1.5589 -2.0627 -0.3831
 5198SOL     OW17043   4.336   0.423   3.859 -0.1258  0.3242 -0.4620
 5198SOL    HW117044   4.367   0.498   3.909  2.3091 -1.1856  0.4929
 5198SOL    HW217045   4.410   0.362   3.858 -1.7407 -1.7875 -1.7720
 5199SOL     OW17046   4.458   5.890   3.437 -0.1815 -0.0755 -0.8297
 5199SOL    HW117047   4.539   5.926   3.399  0.1655  0.8573  0.7028
 5199SOL    HW217048   4.444   5.808   3.390  2.2664 -0.8285 -0.3914
 5200SOL     OW17049   2.227   6.298   3.691  0.1749  0.3352  0.0923
 5200SOL    HW117050   2.270   6.218   3.722 -2.5212 -1.0395  0.5900
 5200SOL    HW217051   2.240   6.361   3.762  2.3068  0.3903 -0.2900
 5201SOL     OW17052   1.353   6.828   4.992 -0.2909  0.3006  0.8382
 5201SOL    HW117053   1.284   6.887   5.019 -0.6629 -0.2362  1.0827
 5201SOL    HW217054   1.324   6.792   4.908 -1.1158 -1.1841  1.7261
 5202SOL     OW17055   0.947   5.825   5.054  0.1871 -0.2984 -0.1551
 5202SOL    HW117056   0.914   5.897   5.000  0.3010 -0.2092 -0.1071
 5202SOL    HW217057   0.897   5.748   5.025 -0.8881  0.0526  0.7002
 5203SOL     OW17058   5.267   5.463   2.301 -0.3125  0.3712  0.3632
 5203SOL    HW117059   5.299   5.491   2.386  1.7846  0.1064 -0.2892
 5203SOL    HW217060   5.311   5.380   2.284  2.6111  2.2476 -2.6333
 5204SOL     OW17061   6.287   5.348   3.279  0.0503 -0.0505  0.0293
 5204SOL    HW117062   6.294   5.320   3.188  0.6809 -0.2112  0.1188
 5204SOL    HW217063   6.359   5.409   3.290 -0.2905  0.3033  0.3046
 5205SOL     OW17064   2.580   4.469   0.654 -0.2951  0.0792  0.2702
 5205SOL    HW117065   2.654   4.515   0.614 -1.0791  1.8302  0.7119
 5205SOL    HW217066   2.600   4.376   0.643  1.9298  0.4965  0.3330
 5206SOL     OW17067   2.072   6.611   1.180 -0.6386  0.3178 -0.1914
 5206SOL    HW117068   2.131   6.626   1.106  0.2048  0.2567  0.4709
 5206SOL    HW217069   2.122   6.636   1.257 -0.6800 -1.7768  0.5794
 5207SOL     OW17070   2.761   4.595   0.897  0.3154  0.3354  0.7319
 5207SOL    HW117071   2.716   4.675   0.872 -2.5355 -0.7821  1.9183
 5207SOL    HW217072   2.806   4.567   0.817  0.0459  2.2379 -0.1390
 5208SOL     OW17073   1.765   2.346   3.883  0.3399  0.7480 -0.2219
 5208SOL    HW117074   1.733   2.435   3.896  3.0353  1.6825  0.5327
 5208SOL    HW217075   1.786   2.314   3.971 -0.4928 -0.6366 -0.4888
 5209SOL     OW17076   1.416   0.068   5.269  0.0853 -0.7359 -0.1629
 5209SOL    HW117077   1.392   0.159   5.249 -0.9216 -1.2558 -1.5202
 5209SOL    HW217078   1.339   0.032   5.313 -0.8367 -1.7667 -2.4561
 5210SOL     OW17079   6.933   6.679   3.959 -0.3581 -0.4154 -0.1667
 5210SOL    HW117080   6.958   6.754   3.905  1.3020 -1.0006 -0.2669
 5210SOL    HW217081   6.838   6.684   3.964 -0.4001  0.7781 -1.4951
 5211SOL     OW17082   4.682   4.813   4.618 -0.4617 -0.2570  0.0981
 5211SOL    HW117083   4.654   4.801   4.709 -0.3493 -0.6291  0.0856
 5211SOL    HW217084   4.715   4.903   4.614  0.1755 -0.4669  0.5913
 5212SOL     OW17085   5.065   3.945   1.958 -0.0454  0.1579 -0.1793
 5212SOL    HW117086   5.073   3.873   1.895 -1.7019  1.5353 -2.1072
 5212SOL    HW217087   4.997   3.916   2.018 -0.7987  0.1182 -1.0239
 5213SOL     OW17088   4.250   6.994   2.466  0.2842  0.1105 -0.5024
 5213SOL    HW117089   4.219   6.908   2.440  0.9128 -0.3983  0.3751
 5213SOL    HW217090   4.187   7.055   2.428  0.3395 -0.6633 -1.9326
 5214SOL     OW17091   6.028   0.414   5.036 -0.0342  0.0491  0.7410
 5214SOL    HW117092   6.002   0.496   4.995  0.5038 -0.0698  0.1400
 5214SOL    HW217093   5.966   0.402   5.109  0.1301  1.1740  1.0789
 5215SOL     OW17094   2.020   0.508   4.606  0.0865 -0.1756 -0.0148
 5215SOL    HW117095   2.062   0.465   4.531  0.1857  0.5624 -0.3935
 5215SOL    HW217096   2.087   0.504   4.675  0.2403 -0.2888 -0.1675
 5216SOL     OW17097   4.135   3.363   2.810  0.2466  0.9651 -0.3393
 5216SOL    HW117098   4.068   3.302   2.780 -0.6289  1.7648 -0.0602
 5216SOL    HW217099   4.154   3.418   2.734  2.7192 -1.0262 -1.3223
 5217SOL     OW17100   0.825   1.220   3.444 -0.2778  0.0416 -0.1144
 5217SOL    HW117101   0.859   1.182   3.525 -0.3261  1.0160  0.3727
 5217SOL    HW217102   0.737   1.249   3.466 -0.1675  0.6137 -0.4252
 5218SOL     OW17103   4.313   1.129   5.836  0.4292  0.7758  0.0004
 5218SOL    HW117104   4.238   1.126   5.896  0.2172  1.1650 -0.2398
 5218SOL    HW217105   4.276   1.163   5.754  0.5215 -0.6008 -0.6395
 5219SOL     OW17106   6.445   5.164   1.817  0.4267  0.1692  0.1341
 5219SOL    HW117107   6.448   5.259   1.830  1.7200 -0.1085  2.2273
 5219SOL    HW217108   6.380   5.133   1.879  0.0210 -0.3452 -0.5301
 5220SOL     OW17109   1.192   3.434   6.589  0.5455  0.1706  0.4696
 5220SOL    HW117110   1.267   3.381   6.563  0.9089  1.2741 -0.8124
 5220SOL    HW217111   1.229   3.521   6.608 -0.5153  1.0905 -1.3859
 5221SOL     OW17112   4.213   2.303   0.666  0.2629  0.0878 -0.6313
 5221SOL    HW117113   4.307   2.298   0.687  0.1337  2.1805  0.7590
 5221SOL    HW217114   4.208   2.282   0.573  1.9511 -1.2969 -0.4598
 5222SOL     OW17115   5.724   0.169   4.040  0.1741  0.8481 -0.2601
 5222SOL    HW117116   5.702   0.122   4.120 -0.5865 -0.2292 -1.0839
 5222SOL    HW217117   5.808   0.212   4.060  2.5524 -3.2575 -0.3831
 5223SOL     OW17118   6.190   3.528   5.750  0.5055 -0.2733 -0.3585
 5223SOL    HW117119   6.283   3.507   5.762 -0.0305 -1.3068  2.7219
 5223SOL    HW217120   6.162   3.563   5.835 -1.9332  0.0696 -1.2281
 5224SOL     OW17121   1.710   5.711   4.748 -0.7493 -0.4315  0.2929
 5224SOL    HW117122   1.794   5.730   4.789 -2.3731 -0.6050  4.0945
 5224SOL    HW217123   1.648   5.770   4.791 -3.2026 -2.9865  0.5893
 5225SOL     OW17124   4.309   4.497   7.105 -0.5980  0.4910 -0.4329
 5225SOL    HW117125   4.220   4.531   7.114 -0.2927  1.0110  0.9333
 5225SOL    HW217126   4.338   4.482   7.195  0.2357 -0.9131 -0.8967
 5226SOL     OW17127   1.457   0.040   2.430 -0.2342  0.3443 -0.2003
 5226SOL    HW117128   1.498   0.021   2.514 -0.5557  0.6252  0.0243
 5226SOL    HW217129   1.493  -0.025   2.370  1.1180  1.0389 -0.1847
 5227SOL     OW17130   5.695   5.098   3.717 -0.3123 -0.1965 -0.4769
 5227SOL    HW117131   5.643   5.018   3.708 -0.1269 -0.3459 -0.2497
 5227SOL    HW217132   5.738   5.108   3.633  1.2230 -1.4402  0.1077
 5228SOL     OW17133   1.890   5.681   0.464 -0.0915 -0.1407 -0.1898
 5228SOL    HW117134   1.852   5.768   0.456  0.1593 -0.0738 -0.7141
 5228SOL    HW217135   1.954   5.689   0.535  1.4932  0.6911 -1.6341
 5229SOL     OW17136   7.029   6.379   3.460  0.0961  0.3449 -0.0633
 5229SOL    HW117137   6.965   6.442   3.427  0.4095  0.0809 -1.1897
 5229SOL    HW217138   7.003   6.295   3.423  1.7366  0.4134 -1.5056
 5230SOL     OW17139   0.557   3.378   2.985 -0.3720  0.3922 -0.5523
 5230SOL    HW117140   0.470   3.340   2.981 -0.3490  0.3498 -0.6414
 5230SOL    HW217141   0.606   3.333   2.916 -0.6123  1.2743 -1.3141
 5231SOL     OW17142   4.137   0.811   2.971  0.6733  0.3572 -0.3642
 5231SOL    HW117143   4.160   0.723   2.941 -0.3307 -0.4709  1.2086
 5231SOL    HW217144   4.211   0.837   3.026  0.4634  0.0213  0.0846
 5232SOL     OW17145   5.150   6.905   1.502  0.1030  0.1481  0.3321
 5232SOL    HW117146   5.098   6.857   1.566 -2.1934  1.4824 -0.4314
 5232SOL    HW217147   5.193   6.837   1.450 -0.3768 -0.9970  1.3971
 5233SOL     OW17148   5.416   3.227   1.669 -0.3980  0.5709 -0.0254
 5233SOL    HW117149   5.326   3.248   1.645 -0.8365  0.6768  1.5777
 5233SOL    HW217150   5.414   3.135   1.692  0.0179  0.4600 -0.4082
 5234SOL     OW17151   0.553   4.009   7.063 -0.4425  0.5267  0.7247
 5234SOL    HW117152   0.642   4.026   7.095 -0.0313  0.8017 -0.5043
 5234SOL    HW217153   0.514   4.096   7.054 -0.1101  0.5510 -0.6930
 5235SOL     OW17154   0.857   6.568   2.061  0.2446  0.1530 -0.1692
 5235SOL    HW117155   0.795   6.612   2.119  0.8250  1.6964 -0.6749
 5235SOL    HW217156   0.804   6.502   2.015 -0.4462 -0.3199  1.2692
 5236SOL     OW17157   5.272   3.024   2.846  0.0199  0.0265 -0.4487
 5236SOL    HW117158   5.323   3.089   2.798 -0.1477 -0.8638 -1.8879
 5236SOL    HW217159   5.190   3.069   2.866  1.2656  1.4704  1.8822
 5237SOL     OW17160   3.617   7.010   0.107  0.7536  0.6939  0.5209
 5237SOL    HW117161   3.547   7.002   0.042 -0.4002 -1.0157  1.8738
 5237SOL    HW217162   3.694   6.974   0.064  0.0363 -0.3424  0.0637
 5238SOL     OW17163   1.928   1.973   4.212  0.3024  0.0109  0.4583
 5238SOL    HW117164   1.884   2.045   4.258  0.2413 -0.1180  0.6052
 5238SOL    HW217165   2.021   1.992   4.221  0.2791  0.2279  0.2414
 5239SOL     OW17166   0.004   2.788   2.448  0.3575 -0.0743  0.2239
 5239SOL    HW117167   0.072   2.768   2.513  0.4079  2.6916  1.1630
 5239SOL    HW217168  -0.073   2.741   2.480  0.9788 -0.5896  1.0184
 5240SOL     OW17169   1.756   4.695   4.044 -0.2240 -0.7681  0.3838
 5240SOL    HW117170   1.707   4.740   3.976 -1.0159 -0.5502  1.0751
 5240SOL    HW217171   1.704   4.617   4.064  2.1693 -3.3143 -2.3173
 5241SOL     OW17172   3.476   3.183   4.664 -0.5668 -0.4789 -0.0515
 5241SOL    HW117173   3.400   3.216   4.617 -0.5818  0.4576  0.6078
 5241SOL    HW217174   3.440   3.126   4.732 -0.6932  0.0696  0.3445
 5242SOL     OW17175   1.118   3.388   4.394 -0.2560 -0.6562  0.5074
 5242SOL    HW117176   1.140   3.296   4.380  1.2134 -0.0528 -1.7827
 5242SOL    HW217177   1.202   3.428   4.420 -1.1199 -0.0987  2.6953
 5243SOL     OW17178   1.504   5.782   0.930  0.3025  0.5806  0.0119
 5243SOL    HW117179   1.484   5.859   0.877  0.3086  0.5971  0.0338
 5243SOL    HW217180   1.419   5.747   0.954  0.2699  1.4789  1.3209
 5244SOL     OW17181   5.837   3.204   3.197 -0.3527 -0.0984 -0.1500
 5244SOL    HW117182   5.872   3.233   3.282 -0.7333 -2.9453  1.0843
 5244SOL    HW217183   5.742   3.214   3.206 -0.4186 -0.7404 -0.0820
 5245SOL     OW17184   1.044   5.760   1.632  0.2965  0.6969  0.2538
 5245SOL    HW117185   1.021   5.793   1.545 -0.0488  0.4761  0.2622
 5245SOL    HW217186   1.101   5.685   1.615  1.5646  1.6204  0.2378
 5246SOL     OW17187   0.059   1.009   5.364  0.4589  0.2424 -0.1267
 5246SOL    HW117188  -0.003   1.023   5.293 -0.8300 -1.1312  0.6647
 5246SOL    HW217189   0.088   0.918   5.352  0.7683  0.2286  0.6898
 5247SOL     OW17190   2.274   0.194   2.765  0.5757 -0.1926  0.5254
 5247SOL    HW117191   2.338   0.165   2.829 -0.3927  1.0687  2.1494
 5247SOL    HW217192   2.213   0.120   2.757  1.4791 -0.8913 -0.0341
 5248SOL     OW17193   3.188   5.500   1.814  0.2280 -0.2453 -0.2510
 5248SOL    HW117194   3.155   5.422   1.769 -0.0776  0.2946 -0.9920
 5248SOL    HW217195   3.149   5.574   1.766  2.2112  0.4277 -0.9506
 5249SOL     OW17196   5.198   4.113   0.157  0.6050  0.4109  0.2209
 5249SOL    HW117197   5.204   4.077   0.245  1.5425 -0.5922 -0.2367
 5249SOL    HW217198   5.252   4.056   0.104  3.0268  3.0477 -0.3608
 5250SOL     OW17199   0.667   0.052   5.228  0.1349  0.4149 -0.6107
 5250SOL    HW117200   0.655  -0.002   5.150  0.9568 -0.1113 -0.3765
 5250SOL    HW217201   0.588   0.037   5.280 -1.0713  1.7991 -1.9230
 5251SOL     OW17202   1.656   3.960   0.049 -0.5020  0.0257  0.0675
 5251SOL    HW117203   1.696   3.918  -0.027 -1.2410 -0.3127 -0.1418
 5251SOL    HW217204   1.620   3.887   0.100 -0.6159  0.3056  0.3945
 5252SOL     OW17205   2.063   3.118   3.728 -0.2628  0.4578 -0.0724
 5252SOL    HW117206   2.140   3.160   3.766 -0.9357  2.2268 -0.5361
 5252SOL    HW217207   2.098   3.045   3.677  1.1374  1.3584 -0.4652
 5253SOL     OW17208   5.046   4.511   0.070  0.1203 -0.5822  0.0490
 5253SOL    HW117209   4.961   4.552   0.086  0.9420  0.8760  0.8248
 5253SOL    HW217210   5.029   4.417   0.080 -1.8514 -0.5287 -1.9783
 5254SOL     OW17211   5.277   4.685   6.878  0.0194  0.0957  0.1564
 5254SOL    HW117212   5.184   4.668   6.865 -0.2821  0.2813  1.8710
 5254SOL    HW217213   5.280   4.750   6.949  1.3977  1.6050 -1.1810
 5255SOL     OW17214   3.470   1.144   0.859  0.3403  0.3934  0.4387
 5255SOL    HW117215   3.428   1.209   0.915 -1.1441 -0.9254  0.9393
 5255SOL    HW217216   3.549   1.120   0.906 -0.2033  0.2845  1.3246
 5256SOL     OW17217   3.507   3.137   6.728  0.1886 -0.0942 -0.2033
 5256SOL    HW117218   3.558   3.218   6.740  1.7805 -1.0431 -0.2956
 5256SOL    HW217219   3.503   3.125   6.634 -0.8438  0.3340 -0.2284
 5257SOL     OW17220   4.385   5.538   5.892  0.3863 -0.0350 -0.0507
 5257SOL    HW117221   4.350   5.615   5.936  1.4193  0.1572  0.4568
 5257SOL    HW217222   4.355   5.464   5.947 -1.5291 -0.1355 -1.1253
 5258SOL     OW17223   0.723   2.483   2.863  0.1244  0.4113  0.2919
 5258SOL    HW117224   0.690   2.548   2.925 -0.8448  0.6555 -0.4507
 5258SOL    HW217225   0.676   2.403   2.885  0.5746  0.2136  0.5541
 5259SOL     OW17226   0.410   1.406   0.691 -1.0233  0.3790 -0.0137
 5259SOL    HW117227   0.320   1.374   0.684 -1.2694  0.6478  1.5153
 5259SOL    HW217228   0.414   1.447   0.777  1.1636 -1.6053  0.9468
 5260SOL     OW17229   5.467   2.179   7.020 -0.4326 -0.1486 -0.4281
 5260SOL    HW117230   5.562   2.191   7.025 -0.2619 -1.0565 -1.1816
 5260SOL    HW217231   5.455   2.113   6.951 -1.4182 -2.3886  1.7512
 5261SOL     OW17232   3.307   2.853   4.365  0.2368  0.0560  0.2734
 5261SOL    HW117233   3.261   2.793   4.306 -0.3765  1.0626 -0.3166
 5261SOL    HW217234   3.277   2.940   4.338 -0.7696  0.5218  2.6509
 5262SOL     OW17235   3.589   3.684   3.061  0.5994 -0.0046 -0.2345
 5262SOL    HW117236   3.510   3.630   3.063 -1.1908  2.4181  1.6365
 5262SOL    HW217237   3.590   3.727   3.147  1.7890  2.9254 -1.5780
 5263SOL     OW17238   3.729   3.356   5.227 -0.1753 -0.3142 -0.4551
 5263SOL    HW117239   3.673   3.392   5.296  0.4799 -0.8888  0.3997
 5263SOL    HW217240   3.815   3.350   5.268  0.0017 -1.6605 -0.9771
 5264SOL     OW17241   0.560   4.850   6.029 -0.2012 -0.3832  0.3816
 5264SOL    HW117242   0.481   4.829   6.080 -0.5659 -0.0881 -0.0528
 5264SOL    HW217243   0.547   4.803   5.947 -1.2772  1.8763 -0.8258
 5265SOL     OW17244   2.351   3.873   4.435  0.3273 -0.0928  0.4512
 5265SOL    HW117245   2.308   3.805   4.487 -3.1403  2.1375  0.8386
 5265SOL    HW217246   2.384   3.935   4.500  0.8663  0.0524  0.0472
 5266SOL     OW17247   1.369   0.886   0.728 -0.7008 -0.3183  0.0642
 5266SOL    HW117248   1.407   0.883   0.640  1.0335 -0.1019  0.7503
 5266SOL    HW217249   1.309   0.960   0.727 -0.4566 -0.1274 -0.8471
 5267SOL     OW17250   0.686   2.064   3.350 -0.6301  0.1361 -0.7017
 5267SOL    HW117251   0.696   2.016   3.268 -1.5974 -0.2797 -0.5832
 5267SOL    HW217252   0.628   2.137   3.328  0.6843  1.1733 -0.8375
 5268SOL     OW17253   2.482   5.443   7.108  0.1168 -0.1001  0.0254
 5268SOL    HW117254   2.524   5.364   7.074  1.7981  1.5201 -1.9852
 5268SOL    HW217255   2.429   5.413   7.182  0.7069 -3.0586 -0.6308
 5269SOL     OW17256   0.198   5.549   1.527 -0.4505  0.0248 -0.4276
 5269SOL    HW117257   0.270   5.565   1.466 -0.3293  2.9791  0.3269
 5269SOL    HW217258   0.225   5.592   1.607 -1.8378 -1.3484  0.8483
 5270SOL     OW17259   4.582   3.481   0.538  0.5863 -0.2705 -0.1296
 5270SOL    HW117260   4.588   3.400   0.486 -0.7909 -0.0826 -0.6170
 5270SOL    HW217261   4.598   3.452   0.628  2.6649 -0.6558 -0.5719
 5271SOL     OW17262   0.787   4.855   5.183  0.1367  0.2101  0.0022
 5271SOL    HW117263   0.842   4.889   5.254 -0.5821  2.0069 -0.2477
 5271SOL    HW217264   0.726   4.796   5.227  0.4908  0.3410  0.6945
 5272SOL     OW17265   5.446   0.012   6.411 -0.0705  0.1860  0.3383
 5272SOL    HW117266   5.528  -0.034   6.389  0.4709  0.3985  1.7763
 5272SOL    HW217267   5.455   0.098   6.370 -0.0299 -0.1542 -0.3739
 5273SOL     OW17268   0.441   5.977   7.092  0.4591  0.0494 -0.1804
 5273SOL    HW117269   0.430   6.067   7.063  2.8553 -0.1650 -2.0763
 5273SOL    HW217270   0.400   5.924   7.022  1.5432 -0.3593 -0.5253
 5274SOL     OW17271   1.592   0.852   5.026 -0.1068 -0.2189  0.3726
 5274SOL    HW117272   1.641   0.831   5.105  0.2277  0.2251  0.2873
 5274SOL    HW217273   1.516   0.794   5.029 -0.1165 -0.1796  1.0345
 5275SOL     OW17274   4.218   3.867   3.663  0.7639  0.1229  0.3681
 5275SOL    HW117275   4.165   3.898   3.589 -1.1950 -0.2259  1.5512
 5275SOL    HW217276   4.171   3.899   3.740  1.7507 -1.0692  1.4990
 5276SOL     OW17277   1.107   0.455   3.752 -0.3975  0.0616 -0.2240
 5276SOL    HW117278   1.096   0.493   3.665  2.1796  0.3050 -0.5394
 5276SOL    HW217279   1.122   0.361   3.735 -0.4618  0.0099  0.0001
 5277SOL     OW17280   1.204   6.492   5.006 -0.6060  0.5667 -0.3380
 5277SOL    HW117281   1.172   6.565   4.953  0.1160  1.3086  0.2241
 5277SOL    HW217282   1.284   6.463   4.961 -0.2995  0.8338  0.0263
 5278SOL     OW17283   5.488   0.266   2.076 -0.5470  0.2299 -0.1559
 5278SOL    HW117284   5.524   0.324   2.143  2.0121  0.0027 -1.2062
 5278SOL    HW217285   5.499   0.178   2.112 -0.3820  0.1829 -0.3150
 5279SOL     OW17286   4.658   4.889   1.597 -0.2088  0.3940 -0.1816
 5279SOL    HW117287   4.653   4.846   1.683  1.2192 -1.2008 -0.8271
 5279SOL    HW217288   4.727   4.955   1.607  1.9363 -1.6231 -0.7406
 5280SOL     OW17289   4.791   1.335   1.516  0.2273  0.2524  0.3761
 5280SOL    HW117290   4.859   1.377   1.463  1.2279 -1.0834  0.5330
 5280SOL    HW217291   4.818   1.243   1.520 -0.8682 -0.0416  1.6032
 5281SOL     OW17292   3.215   4.706   3.900 -0.2167  0.2261  0.1193
 5281SOL    HW117293   3.207   4.801   3.897  0.5249  0.3076  0.4882
 5281SOL    HW217294   3.249   4.683   3.813 -0.3194  0.3042  0.0579
 5282SOL     OW17295   7.017   4.244   6.619 -0.1600 -0.2226 -0.3330
 5282SOL    HW117296   7.000   4.221   6.527 -0.6205 -1.0833 -0.0507
 5282SOL    HW217297   6.935   4.284   6.649 -0.1901 -0.4151 -0.1567
 5283SOL     OW17298   1.069   1.441   1.303  0.3343 -0.3762 -0.1235
 5283SOL    HW117299   1.100   1.351   1.301 -1.1565 -0.9114 -0.3621
 5283SOL    HW217300   1.018   1.448   1.383  0.8515  0.4138  0.1505
 5284SOL     OW17301   2.093   6.356   4.006  0.0501  0.3374  0.5905
 5284SOL    HW117302   2.044   6.337   4.086 -0.4796 -0.2718  0.1358
 5284SOL    HW217303   2.064   6.289   3.944  0.7571  0.5525  0.0145
 5285SOL     OW17304   2.633   1.517   5.277  0.4069  0.0945  1.1038
 5285SOL    HW117305   2.598   1.481   5.194  0.9596  0.6652  0.6185
 5285SOL    HW217306   2.583   1.471   5.345  0.2670 -0.7299  0.4691
 5286SOL     OW17307   4.615   4.794   0.190  0.1648 -0.5246  0.5382
 5286SOL    HW117308   4.608   4.845   0.271 -2.6051  2.7600 -1.4898
 5286SOL    HW217309   4.529   4.802   0.149  1.3420 -2.3142 -2.5918
 5287SOL     OW17310   2.452   6.253   2.732  0.2861  0.1525  0.9078
 5287SOL    HW117311   2.427   6.169   2.694  1.4687 -0.2578  1.0015
 5287SOL    HW217312   2.464   6.234   2.826  2.7084 -0.1304  0.6073
 5288SOL     OW17313   1.864   1.822   0.740  0.3321 -0.2380 -0.7419
 5288SOL    HW117314   1.942   1.877   0.746  0.2020  0.0021 -1.2341
 5288SOL    HW217315   1.802   1.872   0.687  0.6427 -1.3349 -2.2199
 5289SOL     OW17316   5.300   2.828   5.405 -0.3254 -0.2610 -0.0242
 5289SOL    HW117317   5.313   2.736   5.427 -0.1427 -0.0378  0.8663
 5289SOL    HW217318   5.258   2.827   5.319 -0.2790 -1.1692 -0.0463
 5290SOL     OW17319   1.812   4.225   0.669 -0.4951 -0.0462 -0.0778
 5290SOL    HW117320   1.811   4.300   0.609 -0.0253 -1.3884 -1.8064
 5290SOL    HW217321   1.904   4.206   0.682 -0.5793  0.3657  1.3097
 5291SOL     OW17322   6.443   2.529   1.372  0.3307 -0.0356  0.3550
 5291SOL    HW117323   6.364   2.576   1.348  0.4249 -1.0361 -2.2666
 5291SOL    HW217324   6.513   2.594   1.367  0.1314  0.1018 -0.8421
 5292SOL     OW17325   4.153   2.918   2.719 -0.2827  0.1491  0.3375
 5292SOL    HW117326   4.159   2.914   2.624  1.2771 -1.3915  0.4549
 5292SOL    HW217327   4.059   2.930   2.737 -0.9054 -1.7616 -1.3648
 5293SOL     OW17328   0.541   1.675   4.591  0.1741  0.6115  0.2409
 5293SOL    HW117329   0.529   1.753   4.644 -1.6432  0.9879 -0.6576
 5293SOL    HW217330   0.455   1.634   4.589  1.6083 -3.3285  3.4446
 5294SOL     OW17331   3.555   4.373   0.581  0.2000  0.0591 -0.1294
 5294SOL    HW117332   3.635   4.426   0.586  1.7724 -2.1279 -0.8102
 5294SOL    HW217333   3.514   4.384   0.667  0.0748  2.8487 -0.4530
 5295SOL     OW17334   2.407   5.828   0.639 -0.4699  0.1116  0.4487
 5295SOL    HW117335   2.339   5.772   0.676 -1.4172 -0.3560 -1.8589
 5295SOL    HW217336   2.363   5.877   0.569  1.4515  0.1216 -0.8127
 5296SOL     OW17337   2.782   1.290   1.138 -0.6560  0.2798 -0.5527
 5296SOL    HW117338   2.797   1.260   1.048 -0.3500  0.8884 -0.7113
 5296SOL    HW217339   2.850   1.356   1.153 -1.5568  1.1882 -0.3602
 5297SOL     OW17340   1.050   5.981   6.863 -0.5737  0.1862  0.3413
 5297SOL    HW117341   0.998   5.931   6.799 -1.0523 -0.1475  0.9801
 5297SOL    HW217342   1.093   6.048   6.811 -1.4014  0.2672 -0.2643
 5298SOL     OW17343   4.732   4.709   2.540 -0.1775  0.0995  0.1136
 5298SOL    HW117344   4.799   4.647   2.511  0.9238  1.1679  0.3222
 5298SOL    HW217345   4.654   4.655   2.552  1.2066 -1.6123  2.0948
 5299SOL     OW17346   2.271   1.482   2.438  0.4575  0.1967 -0.1364
 5299SOL    HW117347   2.240   1.393   2.454  0.8090  0.4653  2.3354
 5299SOL    HW217348   2.354   1.470   2.392 -0.8891 -0.6077 -2.5915
 5300SOL     OW17349   0.644   0.298   4.930 -0.4514 -0.2238 -0.0913
 5300SOL    HW117350   0.600   0.306   4.845  0.0065  0.3291 -0.2853
 5300SOL    HW217351   0.580   0.330   4.994 -1.0770 -1.3437 -0.1354
 5301SOL     OW17352   4.072   5.709   4.904 -0.2664 -0.6438 -0.4879
 5301SOL    HW117353   3.990   5.756   4.911  0.6689  0.8440  1.8558
 5301SOL    HW217354   4.069   5.644   4.975  0.6800 -0.3628 -0.1708
 5302SOL     OW17355   3.816   5.692   3.412 -0.2373  0.2216  0.2849
 5302SOL    HW117356   3.892   5.733   3.371 -1.2715  2.2804  0.2993
 5302SOL    HW217357   3.796   5.616   3.357  2.2458 -0.8714  0.7329
 5303SOL     OW17358   2.570   5.300   2.318  0.3754  0.0717  0.4014
 5303SOL    HW117359   2.493   5.333   2.272  0.2759 -1.7520 -0.8409
 5303SOL    HW217360   2.644   5.326   2.264  0.3962 -0.5884  0.1045
 5304SOL     OW17361   1.448   0.413   4.852 -0.4813 -0.0312 -0.3581
 5304SOL    HW117362   1.400   0.491   4.880  1.4220  0.9672  0.3166
 5304SOL    HW217363   1.507   0.444   4.784  0.4109 -0.8468  0.0145
 5305SOL     OW17364   5.679   0.562   0.126 -0.5058  0.5937 -0.5921
 5305SOL    HW117365   5.735   0.530   0.056  0.8008 -1.1174  1.1181
 5305SOL    HW217366   5.727   0.637   0.163 -0.1979  0.2351 -0.2574
 5306SOL     OW17367   1.934   4.611   6.615 -0.2231  0.5103  0.4791
 5306SOL    HW117368   1.841   4.594   6.602 -0.2500  1.1580 -0.2679
 5306SOL    HW217369   1.961   4.549   6.683 -1.2536  0.4957  0.8897
 5307SOL     OW17370   2.650   3.557   6.075  0.3841  0.0331  0.0342
 5307SOL    HW117371   2.587   3.612   6.029  0.3002  0.8131  1.0559
 5307SOL    HW217372   2.711   3.528   6.007 -1.3679 -1.2105 -1.0938
 5308SOL     OW17373   1.581   2.396   4.948 -0.1987  0.4401  0.0017
 5308SOL    HW117374   1.491   2.415   4.921 -0.6084 -0.8293  0.4560
 5308SOL    HW217375   1.573   2.355   5.034  0.6342 -1.7075 -0.8803
 5309SOL     OW17376   1.050   2.347   6.965 -0.3690 -0.1411 -0.4443
 5309SOL    HW117377   1.020   2.436   6.948 -0.3340 -0.0114  0.1494
 5309SOL    HW217378   0.989   2.292   6.917 -0.3232  0.2034 -0.9082
 5310SOL     OW17379   0.305   2.047   5.960  0.4275 -0.3959 -0.0166
 5310SOL    HW117380   0.351   2.011   5.884  1.3313  0.7438 -0.0413
 5310SOL    HW217381   0.224   2.082   5.925  0.7965  0.0350 -0.4654
 5311SOL     OW17382   5.297   6.188   2.709 -0.5835 -0.1662 -0.1326
 5311SOL    HW117383   5.296   6.138   2.628 -0.2479 -0.3112 -0.0472
 5311SOL    HW217384   5.273   6.125   2.777  4.0997 -1.4656  0.6755
 5312SOL     OW17385   2.279   1.912   5.190  0.1881  0.0880 -0.1820
 5312SOL    HW117386   2.184   1.922   5.188  0.2142  0.7201 -2.6268
 5312SOL    HW217387   2.308   1.965   5.264 -1.2580  1.3344 -0.4576
 5313SOL     OW17388   1.621   3.890   3.652  0.0017  0.3354 -0.3324
 5313SOL    HW117389   1.587   3.923   3.569 -0.6445  1.3270  0.3060
 5313SOL    HW217390   1.716   3.885   3.639 -0.0349  1.0459 -0.9399
 5314SOL     OW17391   0.827   1.359   6.326 -0.4932  0.2575  0.1699
 5314SOL    HW117392   0.879   1.436   6.350  0.1489  0.1948 -0.9524
 5314SOL    HW217393   0.823   1.361   6.231 -0.0769 -1.3581  0.0883
 5315SOL     OW17394   3.568   0.201   3.569  0.2544 -0.2684 -0.3340
 5315SOL    HW117395   3.511   0.208   3.492 -0.5180 -0.8085  0.1726
 5315SOL    HW217396   3.558   0.110   3.597 -0.5336  0.2531  1.1904
 5316SOL     OW17397   0.509   5.601   2.429 -0.5254 -0.1289  0.3474
 5316SOL    HW117398   0.523   5.669   2.495  0.9186 -0.3833  0.3495
 5316SOL    HW217399   0.588   5.547   2.434 -1.6407 -1.8339  0.3548
 5317SOL     OW17400   1.254   2.879   2.175  0.1073  0.2743 -0.5346
 5317SOL    HW117401   1.295   2.803   2.133 -1.7076  0.1537 -2.2286
 5317SOL    HW217402   1.234   2.938   2.103  0.9740  2.1688  0.7013
 5318SOL     OW17403   0.679   4.669   6.475  0.4101  0.0872  0.2756
 5318SOL    HW117404   0.685   4.576   6.453  1.8525  0.3305 -0.5092
 5318SOL    HW217405   0.770   4.701   6.471  0.2466  1.0672  2.7088
 5319SOL     OW17406   2.494   2.105   1.010  0.1611  0.6714  0.4994
 5319SOL    HW117407   2.415   2.077   0.963  0.9402  2.8078 -2.2745
 5319SOL    HW217408   2.462   2.169   1.074 -0.3986  1.2857 -0.3817
 5320SOL     OW17409   6.532   1.855   1.447 -0.4783 -0.3758  0.5889
 5320SOL    HW117410   6.599   1.849   1.515 -1.8087 -1.7781  1.8707
 5320SOL    HW217411   6.537   1.770   1.403  0.9466  0.8240 -1.7249
 5321SOL     OW17412   3.245   6.140   2.152  0.0424 -0.0526 -0.1071
 5321SOL    HW117413   3.282   6.181   2.074 -0.0354  2.0424  0.8836
 5321SOL    HW217414   3.170   6.089   2.119  2.0930 -2.2010 -1.7779
 5322SOL     OW17415   6.164   0.393   5.278 -0.2189 -0.5377 -0.1629
 5322SOL    HW117416   6.132   0.420   5.192  1.9687  0.1235 -0.8534
 5322SOL    HW217417   6.169   0.475   5.327 -0.1152 -0.7094  0.1116
 5323SOL     OW17418   0.209   6.258   7.082 -0.4136  0.5634 -0.2663
 5323SOL    HW117419   0.153   6.335   7.094 -3.4184 -1.6906  2.2043
 5323SOL    HW217420   0.248   6.244   7.169 -1.2502 -1.5035 -0.1660
 5324SOL     OW17421   3.642   7.115   6.888 -0.1441  0.1871  0.1780
 5324SOL    HW117422   3.644   7.025   6.921  0.7382  0.6825  1.5545
 5324SOL    HW217423   3.734   7.135   6.868 -0.2062  1.0841  0.7473
 5325SOL     OW17424   2.582   0.253   0.559 -0.5163 -0.2243  0.5312
 5325SOL    HW117425   2.555   0.338   0.596 -0.8307 -0.3651  0.6317
 5325SOL    HW217426   2.677   0.258   0.553 -0.4484 -0.2504  1.4948
 5326SOL     OW17427   3.139   2.441   5.631  1.0224  0.2051 -0.1698
 5326SOL    HW117428   3.220   2.425   5.582  0.0093 -0.5981 -1.6420
 5326SOL    HW217429   3.166   2.438   5.723  2.8297  0.9523 -0.6396
 5327SOL     OW17430   6.171   0.043   1.904 -0.6602 -0.3263 -0.1061
 5327SOL    HW117431   6.213   0.073   1.823  0.8299  0.2263  0.8416
 5327SOL    HW217432   6.163  -0.052   1.893 -1.4650 -0.1450 -1.3263
 5328SOL     OW17433   0.054   2.506   2.315 -0.6805 -0.1350 -0.3114
 5328SOL    HW117434   0.069   2.499   2.410 -0.2881  0.5644 -0.3193
 5328SOL    HW217435   0.072   2.597   2.294 -3.3728  0.4067 -0.6241
 5329SOL     OW17436   4.117   2.384   2.917  0.1897 -0.7748 -0.2610
 5329SOL    HW117437   4.036   2.390   2.967  0.7695 -0.1966  0.6284
 5329SOL    HW217438   4.106   2.448   2.846  0.5759  0.6188  0.8996
 5330SOL     OW17439   0.231   2.322   6.910 -0.0469 -0.1079 -0.2839
 5330SOL    HW117440   0.278   2.395   6.950  0.0684 -0.6481  0.5979
 5330SOL    HW217441   0.170   2.294   6.978 -1.3971  0.3265 -1.2548
 5331SOL     OW17442   2.912   3.078   2.595  0.1174  0.3211 -0.1754
 5331SOL    HW117443   2.855   3.055   2.669  0.5409 -0.0604  0.0378
 5331SOL    HW217444   2.853   3.084   2.520 -0.2744  0.4086  0.1360
 5332SOL     OW17445   6.220   0.814   4.514 -0.4610 -0.1372  0.3146
 5332SOL    HW117446   6.162   0.821   4.438 -0.5097  1.2910  0.4407
 5332SOL    HW217447   6.182   0.745   4.567 -1.0314 -0.4275 -0.4546
 5333SOL     OW17448   2.693   2.971   3.830 -0.2860  0.5409  0.1352
 5333SOL    HW117449   2.600   2.962   3.852 -0.2391  1.8076  0.9697
 5333SOL    HW217450   2.715   3.061   3.856  0.8496  0.7070 -1.2556
 5334SOL     OW17451   2.172   4.353   5.066 -0.1106 -0.2328  0.2287
 5334SOL    HW117452   2.176   4.321   4.975 -0.2819 -2.5631  0.9900
 5334SOL    HW217453   2.105   4.421   5.064 -0.6350 -0.7374 -1.2542
 5335SOL     OW17454   5.386   0.925   6.202  0.4092  0.1285  0.1902
 5335SOL    HW117455   5.479   0.923   6.223  0.8232  0.9551 -1.4760
 5335SOL    HW217456   5.363   0.833   6.187  0.9947 -0.0532  0.3773
 5336SOL     OW17457   2.760   2.612   3.968  0.5915  0.5873 -0.0552
 5336SOL    HW117458   2.729   2.654   4.049 -1.3642  0.7467 -0.8184
 5336SOL    HW217459   2.715   2.528   3.966  2.8859 -0.7333  0.4250
 5337SOL     OW17460   2.196   5.153   1.264 -0.1851  0.0976 -0.2968
 5337SOL    HW117461   2.276   5.108   1.291 -0.1354  0.8453  0.8859
 5337SOL    HW217462   2.222   5.208   1.191  0.6013  0.9452  0.5824
 5338SOL     OW17463   3.664   3.292   1.272 -0.1985  0.5707  0.3860
 5338SOL    HW117464   3.605   3.345   1.325 -0.9396  2.2530 -1.9746
 5338SOL    HW217465   3.611   3.217   1.244 -0.1751  0.3299  0.9720
 5339SOL     OW17466   3.855   3.180   1.831 -0.5182  0.2604  0.4189
 5339SOL    HW117467   3.763   3.166   1.810 -0.3621  0.7527 -0.6293
 5339SOL    HW217468   3.894   3.212   1.750  0.4893  0.4749  0.9711
 5340SOL     OW17469   2.090   1.466   1.199 -0.4845  0.4161 -0.0550
 5340SOL    HW117470   2.007   1.418   1.196 -1.0815  1.2328  1.6498
 5340SOL    HW217471   2.147   1.411   1.252 -0.4768  0.6117  0.1399
 5341SOL     OW17472   7.129   6.974   4.902 -0.3994  0.0588  0.2855
 5341SOL    HW117473   7.062   6.906   4.899 -0.4342  0.1263 -0.6432
 5341SOL    HW217474   7.102   7.038   4.836 -0.1746  0.7914  0.8912
 5342SOL     OW17475   4.208   3.844   2.833  0.0267  0.3246 -0.2462
 5342SOL    HW117476   4.136   3.829   2.772 -0.1313 -0.4756  0.1196
 5342SOL    HW217477   4.174   3.911   2.893 -1.3328 -1.6117  1.3045
 5343SOL     OW17478   5.487   2.670   0.304 -0.5972  0.2577  0.1183
 5343SOL    HW117479   5.517   2.685   0.215 -0.4314  0.0198  0.1340
 5343SOL    HW217480   5.479   2.758   0.342  0.5197  0.3105  0.2550
 5344SOL     OW17481   1.510   3.626   3.425 -0.3226 -0.7545 -0.5755
 5344SOL    HW117482   1.536   3.585   3.508  2.2771 -0.3217 -1.1027
 5344SOL    HW217483   1.454   3.699   3.451  1.9557  0.5430  1.0176
 5345SOL     OW17484   3.749   6.678   0.465  0.2185  0.2093  0.4740
 5345SOL    HW117485   3.735   6.682   0.560  0.2467 -0.0503  0.4902
 5345SOL    HW217486   3.686   6.613   0.435  0.6447 -0.1738  0.4010
 5346SOL     OW17487   4.989   1.025   5.402 -0.3492 -0.4373  0.2318
 5346SOL    HW117488   4.953   1.099   5.353  1.9687  0.6901  0.1258
 5346SOL    HW217489   4.959   1.040   5.492 -1.3653 -0.3765 -0.1035
 5347SOL     OW17490   6.728   0.362   3.748 -0.0249 -0.4616 -0.3187
 5347SOL    HW117491   6.647   0.311   3.748  0.1586 -0.7633 -0.5049
 5347SOL    HW217492   6.744   0.382   3.656 -1.4127  2.1152 -0.0912
 5348SOL     OW17493   2.399   7.025   1.944  0.0749  0.4818 -0.8478
 5348SOL    HW117494   2.368   7.114   1.924  0.2816  0.4294 -1.4132
 5348SOL    HW217495   2.410   6.983   1.859 -1.4137 -0.5758 -0.5444
 5349SOL     OW17496   6.642   1.366   0.473  0.2106 -0.6689  0.1142
 5349SOL    HW117497   6.554   1.348   0.440  0.6063 -1.2775 -0.6434
 5349SOL    HW217498   6.655   1.302   0.543  0.0331 -0.5481  0.2575
 5350SOL     OW17499   2.529   0.682   1.822  0.4440  0.6433  0.3276
 5350SOL    HW117500   2.450   0.674   1.769  0.3847 -0.9896  0.6029
 5350SOL    HW217501   2.501   0.733   1.898 -0.3243  0.2098  0.3531
 5351SOL     OW17502   4.810   4.689   4.405  0.0609 -0.4072  0.6504
 5351SOL    HW117503   4.763   4.608   4.384  0.1874 -0.4255  0.4337
 5351SOL    HW217504   4.778   4.713   4.492 -2.0556  0.8303 -0.3906
 5352SOL     OW17505   2.192   2.581   3.576  0.8842  0.0758  0.1708
 5352SOL    HW117506   2.166   2.521   3.505  1.2390 -0.7750  0.7393
 5352SOL    HW217507   2.131   2.561   3.647  1.2432  0.1221  0.4950
 5353SOL     OW17508   5.334   2.819   4.053 -0.2599  0.2218  0.6739
 5353SOL    HW117509   5.357   2.842   3.963 -0.7046 -0.5586  0.3450
 5353SOL    HW217510   5.418   2.805   4.096 -0.0287  1.2145  0.5529
 5354SOL     OW17511   1.264   2.831   7.006  0.5229  0.9496 -0.0553
 5354SOL    HW117512   1.283   2.900   7.070 -0.9014  2.1310 -0.8628
 5354SOL    HW217513   1.183   2.790   7.037  1.9656 -1.2715  1.0914
 5355SOL     OW17514   3.287   6.255   2.680 -0.5799 -0.2096  0.4290
 5355SOL    HW117515   3.202   6.290   2.654 -0.8239  1.2584  2.8743
 5355SOL    HW217516   3.267   6.198   2.755  0.5747  0.0734  0.9682
 5356SOL     OW17517   6.241   1.477   5.208 -0.7073  0.0059 -0.1538
 5356SOL    HW117518   6.328   1.451   5.241 -0.8069 -1.2468 -0.8074
 5356SOL    HW217519   6.184   1.470   5.284 -0.1885  1.1276  0.3536
 5357SOL     OW17520   6.038   3.664   3.534  0.0896  0.3692 -0.1906
 5357SOL    HW117521   6.060   3.607   3.460  0.9103  0.0251  0.3136
 5357SOL    HW217522   6.073   3.750   3.510  3.4453 -0.4472  1.1934
 5358SOL     OW17523   1.082   3.243   4.938  0.1871  0.4817  0.2517
 5358SOL    HW117524   1.093   3.219   4.846  1.1225  1.2283  0.1548
 5358SOL    HW217525   1.082   3.160   4.985  1.1725  0.1701 -0.2817
 5359SOL     OW17526   4.729   4.141   5.345 -0.1653 -0.5449  0.0848
 5359SOL    HW117527   4.793   4.122   5.276 -0.1294 -0.5348  0.1147
 5359SOL    HW217528   4.645   4.112   5.310 -0.0622 -1.0821  0.2662
 5360SOL     OW17529   1.621   5.488   2.729  0.4620  0.2651 -0.0181
 5360SOL    HW117530   1.704   5.489   2.683  0.4645  3.2730 -0.1743
 5360SOL    HW217531   1.561   5.443   2.670  1.9405 -2.1885  0.2039
 5361SOL     OW17532   0.191   1.699   5.389 -0.0623  0.8455  0.0283
 5361SOL    HW117533   0.281   1.729   5.376 -0.2139  0.4323 -2.6146
 5361SOL    HW217534   0.183   1.623   5.331 -1.7142  0.0023  1.2962
 5362SOL     OW17535   5.426   3.603   0.945  0.2015 -0.3178 -1.0950
 5362SOL    HW117536   5.401   3.546   0.872 -2.1660  0.3904 -0.9221
 5362SOL    HW217537   5.356   3.669   0.949  0.8311  0.3068  1.1436
 5363SOL     OW17538   5.845   2.778   1.644  0.0733 -0.3801  0.2774
 5363SOL    HW117539   5.844   2.802   1.551 -1.2762  1.7783  0.7596
 5363SOL    HW217540   5.935   2.791   1.672  0.0612  1.0874 -0.2877
 5364SOL     OW17541   6.661   3.918   1.358 -0.0697  0.3738 -0.2267
 5364SOL    HW117542   6.570   3.908   1.330 -0.4200  1.7412  0.3183
 5364SOL    HW217543   6.689   3.830   1.382 -1.2300 -0.0785 -0.4772
 5365SOL     OW17544   3.971   0.547   0.091  0.1909  0.4000 -0.5701
 5365SOL    HW117545   4.005   0.608   0.157 -0.1168 -1.1466  1.0995
 5365SOL    HW217546   3.877   0.540   0.111  0.4368 -1.5386  0.1094
 5366SOL     OW17547   3.346   5.898   2.015  0.1722  0.1849 -0.2339
 5366SOL    HW117548   3.288   5.973   2.027 -0.0707  0.2190 -1.4735
 5366SOL    HW217549   3.305   5.848   1.944  1.1235 -0.3387 -0.4266
 5367SOL     OW17550   0.157   3.521   6.781  0.3171  0.3934 -0.1379
 5367SOL    HW117551   0.150   3.426   6.766  1.0830  0.2898  0.0881
 5367SOL    HW217552   0.149   3.530   6.876 -1.2481  0.7167 -0.2770
 5368SOL     OW17553   4.809   1.446   3.369  0.9232 -0.3068 -0.1377
 5368SOL    HW117554   4.759   1.412   3.295  0.6666  1.9956 -1.1152
 5368SOL    HW217555   4.747   1.447   3.442  0.4804 -0.4382 -0.5116
 5369SOL     OW17556   1.817   1.725   2.905 -0.2088  0.0094  0.4330
 5369SOL    HW117557   1.735   1.724   2.954 -0.8532 -1.5277 -0.5945
 5369SOL    HW217558   1.801   1.783   2.831 -0.6046 -0.7408 -0.0884
 5370SOL     OW17559   5.531   2.568   5.956  0.2465 -0.0327  0.6236
 5370SOL    HW117560   5.599   2.618   6.000  0.0438  0.2776  0.5850
 5370SOL    HW217561   5.531   2.601   5.866 -1.5336  1.6495  1.1694
 5371SOL     OW17562   4.968   0.211   4.361 -0.0131  0.0924  0.7880
 5371SOL    HW117563   4.904   0.234   4.428 -1.0152 -1.7872  0.5443
 5371SOL    HW217564   4.952   0.274   4.290 -1.6291 -0.3605  0.7181
 5372SOL     OW17565   2.308   5.226   4.106 -0.1976  0.0990  0.5504
 5372SOL    HW117566   2.344   5.183   4.183  0.2344  0.2549  0.4401
 5372SOL    HW217567   2.218   5.193   4.099  0.0102 -0.4990  0.6742
 5373SOL     OW17568   3.563   3.230   2.868 -0.2421 -0.3982  0.1994
 5373SOL    HW117569   3.539   3.293   2.799  0.7565 -1.0302 -0.7618
 5373SOL    HW217570   3.593   3.285   2.941 -2.1477  0.3178  0.4999
 5374SOL     OW17571   5.824   3.982   4.874 -0.6302  0.0408 -0.1713
 5374SOL    HW117572   5.865   3.943   4.952 -2.3407  0.0322  0.7632
 5374SOL    HW217573   5.807   3.907   4.816  2.1263  0.2059 -1.3674
 5375SOL     OW17574   3.580   4.226   7.067 -0.3643 -0.0238  0.7762
 5375SOL    HW117575   3.589   4.211   7.161 -2.0039  0.8566  1.1187
 5375SOL    HW217576   3.599   4.319   7.056  2.0185 -0.5430 -0.1459
 5376SOL     OW17577   3.940   0.808   5.868 -0.1030  0.9054  0.3501
 5376SOL    HW117578   3.907   0.778   5.784 -0.4961  2.0528  0.0754
 5376SOL    HW217579   3.877   0.874   5.896  1.2917  2.2850  0.3920
 5377SOL     OW17580   2.622   2.877   2.698 -0.0442 -0.0607 -0.3856
 5377SOL    HW117581   2.546   2.903   2.646  0.6372  0.4256 -1.1749
 5377SOL    HW217582   2.648   2.792   2.662  0.3261  0.1978 -0.7420
 5378SOL     OW17583   2.068   1.138   5.280 -0.8549  0.6088  0.0465
 5378SOL    HW117584   2.002   1.208   5.278  0.8961  2.3679 -2.8044
 5378SOL    HW217585   2.047   1.083   5.204  0.3254  0.5990 -0.2934
 5379SOL     OW17586   1.895   5.450   6.091  0.4274 -0.3066  0.0527
 5379SOL    HW117587   1.872   5.422   6.002 -2.0590  0.8633  0.2408
 5379SOL    HW217588   1.939   5.375   6.129  0.1267 -1.4083 -1.6697
 5380SOL     OW17589   5.531   2.256   6.402  0.8317  0.5471 -0.3629
 5380SOL    HW117590   5.441   2.262   6.435 -0.1231 -0.9947 -2.4517
 5380SOL    HW217591   5.537   2.327   6.338  0.5114 -0.3620 -1.4246
 5381SOL     OW17592   0.486   3.192   0.123  0.1638  0.2041  1.0896
 5381SOL    HW117593   0.525   3.165   0.207 -0.7422  0.2380  1.5384
 5381SOL    HW217594   0.429   3.119   0.099  2.1044 -0.8509 -0.6920
 5382SOL     OW17595   4.507   5.942   3.744 -0.6415 -0.3964  0.1264
 5382SOL    HW117596   4.590   5.896   3.756 -0.5470 -0.7376 -1.5890
 5382SOL    HW217597   4.496   5.947   3.649 -0.7471  2.9545  0.2013
 5383SOL     OW17598   3.232   2.522   1.632 -0.4174  0.2939  0.0810
 5383SOL    HW117599   3.328   2.527   1.628 -0.3610 -0.5446  0.3139
 5383SOL    HW217600   3.202   2.584   1.566  0.2684  1.3602  0.7333
 5384SOL     OW17601   4.309   1.908   6.035 -0.3177 -0.2782  0.7079
 5384SOL    HW117602   4.303   1.853   6.112  0.0075  0.4262  1.2441
 5384SOL    HW217603   4.364   1.859   5.974 -0.0688 -0.5594  1.1603
 5385SOL     OW17604   0.194   1.945   0.948 -0.4274  0.2197  0.2937
 5385SOL    HW117605   0.168   1.946   1.040 -1.4943 -1.0053  0.0339
 5385SOL    HW217606   0.241   2.027   0.936 -1.1436  0.8744  1.6789
 5386SOL     OW17607   0.091   3.989   4.697  0.2270  0.2688  0.1674
 5386SOL    HW117608   0.150   4.055   4.733  0.4363  1.0874 -1.5865
 5386SOL    HW217609   0.016   3.990   4.757  0.1935  2.1542  0.1670
 5387SOL     OW17610   4.144   6.032   0.544  0.2281  0.3914 -0.5772
 5387SOL    HW117611   4.140   6.114   0.496  0.7621  0.7213 -0.0701
 5387SOL    HW217612   4.055   6.019   0.578  0.1175  0.6969 -0.7518
 5388SOL     OW17613   4.782   5.523   2.818  0.1789  0.3232  0.4207
 5388SOL    HW117614   4.805   5.450   2.876  1.1281  0.0906 -0.2132
 5388SOL    HW217615   4.698   5.497   2.780  0.3094 -0.2538  0.5094
 5389SOL     OW17616   4.666   6.297   5.636  1.0704  0.8420 -0.1652
 5389SOL    HW117617   4.666   6.260   5.547 -2.1510  1.1180 -0.4028
 5389SOL    HW217618   4.685   6.223   5.693 -0.2187 -0.1173 -0.9316
 5390SOL     OW17619   3.211   6.789   2.354  0.2250  0.0494 -0.0183
 5390SOL    HW117620   3.150   6.861   2.374 -2.4810 -1.3940 -2.3328
 5390SOL    HW217621   3.290   6.833   2.324 -0.3794  2.0256  1.0629
 5391SOL     OW17622   4.608   5.659   0.446 -0.1763 -0.1994 -0.6613
 5391SOL    HW117623   4.627   5.753   0.445 -1.6119  0.1870  1.2302
 5391SOL    HW217624   4.657   5.625   0.521  0.7714 -1.0980 -1.6555
 5392SOL     OW17625   3.585   5.982   6.124  0.2336  0.0703  0.1071
 5392SOL    HW117626   3.499   5.941   6.136  1.0288 -1.9323 -0.5541
 5392SOL    HW217627   3.621   5.938   6.047  1.1099  2.2079 -0.7600
 5393SOL     OW17628   5.902   3.661   3.774  0.4988 -0.2140 -0.2398
 5393SOL    HW117629   5.967   3.632   3.837 -0.9018 -0.8954  0.9630
 5393SOL    HW217630   5.952   3.691   3.699  2.2292  0.8868  1.2961
 5394SOL     OW17631   1.194   1.191   1.267 -0.3895 -0.0978 -0.9535
 5394SOL    HW117632   1.237   1.189   1.352  0.9943  0.6031 -1.5929
 5394SOL    HW217633   1.147   1.108   1.261 -2.0799  0.6122  1.2355
 5395SOL     OW17634   0.677   0.426   3.085  0.3499  1.1721 -0.6343
 5395SOL    HW117635   0.632   0.346   3.111  2.6179  0.2329  0.7372
 5395SOL    HW217636   0.626   0.497   3.125  0.0674  0.1692  0.8462
 5396SOL     OW17637   1.265   5.034   4.501 -0.1960 -0.3804 -0.4591
 5396SOL    HW117638   1.273   4.970   4.572 -0.1778 -0.9430 -0.9658
 5396SOL    HW217639   1.233   5.114   4.545  0.5485 -0.4856  0.2999
 5397SOL     OW17640   3.063   4.524   2.696 -0.1233  0.4082 -0.4444
 5397SOL    HW117641   3.117   4.597   2.666 -0.6666  0.8655 -0.3184
 5397SOL    HW217642   3.061   4.464   2.621  1.6826 -0.2907 -0.0017
 5398SOL     OW17643   5.027   2.811   5.212 -0.2039 -0.3050 -0.0412
 5398SOL    HW117644   5.058   2.786   5.125  0.2571  2.7095 -0.8630
 5398SOL    HW217645   4.994   2.900   5.201 -1.3694 -0.3266  2.6188
 5399SOL     OW17646   5.436   1.639   0.938  0.1024  0.0723  0.4804
 5399SOL    HW117647   5.498   1.585   0.986  1.3589  2.1260  1.3044
 5399SOL    HW217648   5.388   1.687   1.006 -0.1154  0.8857 -0.2198
 5400SOL     OW17649   4.980   1.651   4.857  0.0485  0.0397 -0.3922
 5400SOL    HW117650   4.909   1.598   4.893  0.5835 -0.7309 -0.4573
 5400SOL    HW217651   5.050   1.647   4.923 -0.0543  1.0127 -0.2048
 5401SOL     OW17652   6.259   6.825   4.316 -0.1732 -0.2741 -0.5044
 5401SOL    HW117653   6.224   6.815   4.405  0.3530 -2.4327 -0.4866
 5401SOL    HW217654   6.181   6.828   4.260 -0.5064  1.0483 -0.0194
 5402SOL     OW17655   0.983   0.455   5.965 -0.0351 -0.1487 -0.5419
 5402SOL    HW117656   0.917   0.468   5.897  1.0540 -2.0071 -2.0577
 5402SOL    HW217657   0.982   0.536   6.015 -2.2719  0.5189 -1.5465
 5403SOL     OW17658   3.784   4.299   1.599  0.0647  0.3096 -0.3044
 5403SOL    HW117659   3.869   4.335   1.624  0.5711  1.8542 -3.6957
 5403SOL    HW217660   3.735   4.374   1.566 -2.3225 -0.7320  0.6074
 5404SOL     OW17661   5.230   4.916   0.923 -0.1572  0.2213 -0.4073
 5404SOL    HW117662   5.145   4.891   0.957 -0.1333  1.9990  1.1109
 5404SOL    HW217663   5.216   4.927   0.829 -1.2583 -0.7794 -0.3824
 5405SOL     OW17664   1.819   5.940   0.408  0.1324  0.3407 -0.3668
 5405SOL    HW117665   1.823   5.942   0.313  1.5861  0.1253 -0.3280
 5405SOL    HW217666   1.886   6.003   0.436  0.9473 -0.8723  0.5113
 5406SOL     OW17667   6.948   6.045   1.793  0.2134  0.3150 -0.8072
 5406SOL    HW117668   7.021   5.994   1.829 -1.5193 -2.0594 -0.4226
 5406SOL    HW217669   6.990   6.107   1.732  2.4614 -2.1485 -1.9910
 5407SOL     OW17670   2.360   5.733   6.468 -0.3032 -0.0214 -0.0511
 5407SOL    HW117671   2.322   5.647   6.455 -0.8997  0.1507  0.4663
 5407SOL    HW217672   2.402   5.728   6.554 -0.2794  0.1834 -0.0488
 5408SOL     OW17673   3.170   5.412   5.801  0.0709 -0.4505 -0.5144
 5408SOL    HW117674   3.089   5.460   5.785  1.3189  1.2100 -2.2546
 5408SOL    HW217675   3.173   5.347   5.731 -0.1283 -1.0696  0.0405
 5409SOL     OW17676   3.939   3.403   5.377 -0.5108  0.3765  0.6394
 5409SOL    HW117677   3.903   3.492   5.379  2.3442  1.7875 -1.9420
 5409SOL    HW217678   4.004   3.401   5.447 -0.0225  0.6119  0.1961
 5410SOL     OW17679   5.106   3.397   6.803  0.0408  0.7919  0.9727
 5410SOL    HW117680   5.116   3.307   6.833 -2.6631 -0.9187 -2.4793
 5410SOL    HW217681   5.033   3.431   6.855 -2.3293 -0.9428 -0.9706
 5411SOL     OW17682   0.389   2.844   5.084 -0.4068 -0.4361 -0.1167
 5411SOL    HW117683   0.436   2.893   5.016 -0.6172 -0.7639 -0.5085
 5411SOL    HW217684   0.329   2.788   5.035 -2.1382  0.8897  0.4073
 5412SOL     OW17685   4.368   3.498   5.513 -0.1598 -0.2831 -0.1347
 5412SOL    HW117686   4.331   3.541   5.435 -0.0658  0.5872  0.2859
 5412SOL    HW217687   4.323   3.414   5.517 -1.9337  0.6330  0.2020
 5413SOL     OW17688   0.306   5.419   2.322 -0.1626 -0.1515  0.5967
 5413SOL    HW117689   0.343   5.348   2.374 -0.2585 -0.1323  0.6908
 5413SOL    HW217690   0.362   5.495   2.341  0.3209 -0.3546  0.0151
 5414SOL     OW17691   0.049   6.152   6.530 -0.3100  0.0296 -0.2744
 5414SOL    HW117692  -0.045   6.164   6.543 -0.4335 -0.3040 -0.8427
 5414SOL    HW217693   0.065   6.059   6.549 -0.7144 -0.8303 -3.5745
 5415SOL     OW17694   1.560   1.136   1.887 -0.2623  0.3070  0.0309
 5415SOL    HW117695   1.639   1.188   1.875  0.5661 -0.7740  0.5996
 5415SOL    HW217696   1.504   1.159   1.812  0.2518  1.6614  0.0420
 5416SOL     OW17697   0.390   1.483   0.940 -0.0617  0.2729 -0.3007
 5416SOL    HW117698   0.349   1.568   0.956 -0.6990 -0.0284 -0.3097
 5416SOL    HW217699   0.338   1.421   0.990  1.5471  0.1186  1.2954
 5417SOL     OW17700   4.391   0.210   5.152 -0.5620 -0.5695 -0.3735
 5417SOL    HW117701   4.451   0.283   5.169 -0.4709 -0.2647 -1.9211
 5417SOL    HW217702   4.447   0.132   5.153 -0.5504 -0.5609  0.5884
 5418SOL     OW17703   7.106   3.947   0.373 -0.2888  0.5896  1.0262
 5418SOL    HW117704   7.158   4.026   0.360 -0.4709  0.9959  2.5461
 5418SOL    HW217705   7.130   3.917   0.461  1.3510 -2.2747 -0.2763
 5419SOL     OW17706   4.484   6.821   6.624 -0.3788  0.0136  0.4121
 5419SOL    HW117707   4.497   6.873   6.545  0.1906 -2.4303 -1.2230
 5419SOL    HW217708   4.570   6.783   6.643 -0.9838 -1.1897  0.8770
 5420SOL     OW17709   2.107   3.650   6.722  0.5801 -0.1432 -0.6376
 5420SOL    HW117710   2.151   3.638   6.638  3.3955 -0.8076  0.8047
 5420SOL    HW217711   2.149   3.587   6.781 -0.1351  1.3741  1.6514
 5421SOL     OW17712   5.630   6.046   3.982 -1.2535  0.4297  0.0168
 5421SOL    HW117713   5.602   6.067   3.893  0.3905 -0.8025 -0.8484
 5421SOL    HW217714   5.709   6.099   3.994  0.8092 -2.2557 -0.8110
 5422SOL     OW17715   2.254   6.486   4.645 -0.5548  0.2978  0.5257
 5422SOL    HW117716   2.322   6.507   4.581 -1.4282 -0.8708 -0.8751
 5422SOL    HW217717   2.173   6.515   4.604 -1.0576  0.2897  1.4885
 5423SOL     OW17718   1.526   4.005   4.847 -0.0377  0.2375  0.6962
 5423SOL    HW117719   1.545   4.095   4.872 -0.3761  0.4155  0.3122
 5423SOL    HW217720   1.431   4.000   4.844 -0.0133  0.2822 -0.7597
 5424SOL     OW17721   5.764   2.364   6.106 -0.1031 -0.1190 -0.3601
 5424SOL    HW117722   5.733   2.298   6.044 -2.0492  0.8071 -0.4588
 5424SOL    HW217723   5.691   2.375   6.168  0.0545  2.0851 -0.4826
 5425SOL     OW17724   0.627   5.634   7.004 -0.2231 -0.0862  0.5606
 5425SOL    HW117725   0.544   5.600   7.038 -0.9262 -0.5465 -1.4404
 5425SOL    HW217726   0.678   5.556   6.982  0.9799  0.1952  2.2362
 5426SOL     OW17727   1.669   4.997   3.349 -0.0448  0.2729  0.3987
 5426SOL    HW117728   1.575   5.012   3.366 -0.0923  0.2465  0.1664
 5426SOL    HW217729   1.694   4.928   3.410  0.0212  0.8615  1.0422
 5427SOL     OW17730   5.381   1.478   6.959 -0.1545 -0.1684 -0.0462
 5427SOL    HW117731   5.434   1.414   6.911 -0.8549 -2.7537  2.2815
 5427SOL    HW217732   5.438   1.507   7.030 -0.1785  1.0957 -0.5272
 5428SOL     OW17733   7.080   0.284   1.595  0.2714 -0.0193 -0.7708
 5428SOL    HW117734   7.149   0.302   1.658  0.6220  0.0405 -1.1646
 5428SOL    HW217735   7.121   0.301   1.510 -0.2862  0.2175 -0.9986
 5429SOL     OW17736   6.084   5.670   0.048  0.4454 -0.2228  0.1415
 5429SOL    HW117737   6.100   5.642  -0.042  1.4842 -2.0904  0.8585
 5429SOL    HW217738   6.039   5.596   0.089  1.8385 -0.2892  1.6867
 5430SOL     OW17739   0.411   1.968   6.189  0.4579 -0.1194 -0.2864
 5430SOL    HW117740   0.360   1.893   6.219  0.4403  0.6378  1.7125
 5430SOL    HW217741   0.384   1.981   6.098 -1.1206 -1.2037 -0.0029
 5431SOL     OW17742   0.703   6.561   3.839  0.2559  0.0660  0.0982
 5431SOL    HW117743   0.628   6.520   3.796  0.8755  1.0591 -2.0937
 5431SOL    HW217744   0.778   6.510   3.808  0.6655  0.3764  0.5716
 5432SOL     OW17745   3.065   0.783   0.389 -0.2427 -0.7296 -0.1065
 5432SOL    HW117746   3.042   0.847   0.457 -0.9033  0.4803 -1.4099
 5432SOL    HW217747   3.152   0.752   0.414  1.2758  2.6084 -0.7106
 5433SOL     OW17748   2.087   5.527   3.289 -0.0448 -0.0070 -0.5736
 5433SOL    HW117749   2.071   5.497   3.200 -3.2888 -0.1591 -0.0550
 5433SOL    HW217750   2.076   5.623   3.285  1.0683  0.1283 -0.5526
 5434SOL     OW17751   5.006   3.768   0.030  0.1318 -0.9828 -0.1084
 5434SOL    HW117752   4.953   3.739   0.104  1.4250 -3.1897  0.0431
 5434SOL    HW217753   4.999   3.863   0.030 -2.8593 -1.1262  0.5743
 5435SOL     OW17754   6.296   4.719   4.660  0.6320 -0.5691  0.1324
 5435SOL    HW117755   6.322   4.746   4.748  0.0067 -2.2733  0.8806
 5435SOL    HW217756   6.369   4.667   4.628  0.3390 -1.0089  0.1643
 5436SOL     OW17757   2.085   6.075   7.057 -0.2935  0.2208  0.1408
 5436SOL    HW117758   1.998   6.117   7.052 -0.6786 -0.6436 -0.6790
 5436SOL    HW217759   2.075   6.007   7.123  0.5090  1.7620  1.9329
 5437SOL     OW17760   4.781   5.176   6.196 -0.4029  0.2687  0.2870
 5437SOL    HW117761   4.724   5.248   6.169  0.4610  0.8295 -0.0873
 5437SOL    HW217762   4.787   5.119   6.120  1.0032  1.1848 -0.3406
 5438SOL     OW17763   1.471   0.916   1.445  0.4047 -1.0803  0.2044
 5438SOL    HW117764   1.489   0.879   1.531  2.7701  0.1969  0.3329
 5438SOL    HW217765   1.516   0.859   1.383  2.0896  0.1550  0.2130
 5439SOL     OW17766   4.598   6.116   6.163 -0.1302  0.0198  0.2065
 5439SOL    HW117767   4.573   6.196   6.208 -0.8058 -0.7867  1.3023
 5439SOL    HW217768   4.555   6.046   6.212  1.6999 -1.1583  0.2274
 5440SOL     OW17769   0.909   5.081   6.269 -0.3220 -0.1683  0.3672
 5440SOL    HW117770   0.873   5.030   6.342 -2.2696 -0.8228 -0.9777
 5440SOL    HW217771   0.970   5.142   6.311  0.4033 -2.0829  2.2769
 5441SOL     OW17772   0.939   2.947   4.376 -0.4673 -0.1276  0.1521
 5441SOL    HW117773   0.970   2.953   4.466 -0.8123  0.2650  0.2470
 5441SOL    HW217774   1.014   2.974   4.323 -1.7131  5.0968  0.5142
 5442SOL     OW17775   0.040   3.366   2.664 -0.0058  0.0959 -0.0006
 5442SOL    HW117776   0.096   3.439   2.690 -0.1862 -0.4726  2.1584
 5442SOL    HW217777   0.080   3.289   2.705 -1.2434 -0.6278 -0.0927
 5443SOL     OW17778   3.380   5.212   1.851 -0.1181 -0.4747  0.1723
 5443SOL    HW117779   3.405   5.217   1.759  1.1921 -0.0393  0.5357
 5443SOL    HW217780   3.286   5.190   1.849 -0.5450  1.2379 -1.2770
 5444SOL     OW17781   0.732   0.987   1.947 -0.3646  0.4877 -0.4347
 5444SOL    HW117782   0.762   0.906   1.990  0.3130  0.3278 -1.1975
 5444SOL    HW217783   0.721   1.049   2.019  0.0220 -0.0051  0.0590
 5445SOL     OW17784   5.067   4.700   3.383  0.0663 -0.0947  0.1356
 5445SOL    HW117785   5.093   4.621   3.430 -0.1417 -0.1099  0.2291
 5445SOL    HW217786   5.035   4.668   3.299 -0.7098 -0.1808  0.4548
 5446SOL     OW17787   1.812   2.825   3.642  0.0103 -0.1792  0.2009
 5446SOL    HW117788   1.771   2.739   3.639  1.3111 -0.9203  1.8361
 5446SOL    HW217789   1.777   2.871   3.566  0.2602 -2.6012 -1.5083
 5447SOL     OW17790   3.073   6.693   2.852 -0.3611 -0.1354  0.1284
 5447SOL    HW117791   3.100   6.766   2.797  1.1348 -0.2912  0.6163
 5447SOL    HW217792   2.999   6.654   2.804  0.1326  0.4428 -1.1720
 5448SOL     OW17793   1.319   2.319   1.745 -0.1888 -0.1479 -0.0590
 5448SOL    HW117794   1.298   2.226   1.755  0.0774 -0.1862  0.1686
 5448SOL    HW217795   1.234   2.363   1.746 -0.2525 -0.1509  2.4362
 5449SOL     OW17796   0.188   2.808   1.569 -0.4875  0.3975 -0.2783
 5449SOL    HW117797   0.128   2.758   1.624 -0.6245 -0.9047 -1.5590
 5449SOL    HW217798   0.243   2.855   1.632 -0.7144 -0.9265  0.9789
 5450SOL     OW17799   3.950   6.498   4.343 -0.3598 -0.5183  0.4368
 5450SOL    HW117800   3.968   6.418   4.393 -0.6011 -0.3901  0.7338
 5450SOL    HW217801   3.942   6.567   4.410 -1.3180 -0.4577  0.2697
 5451SOL     OW17802   4.844   6.339   2.240 -0.6716 -0.3142 -0.0532
 5451SOL    HW117803   4.864   6.269   2.178 -1.0589  0.0221 -0.5595
 5451SOL    HW217804   4.749   6.347   2.240 -0.6439  0.0926  0.1375
 5452SOL     OW17805   3.072   3.534   4.939  0.0015  0.1841 -0.3907
 5452SOL    HW117806   2.992   3.577   4.909  0.4474  0.6812 -0.9019
 5452SOL    HW217807   3.118   3.601   4.989 -0.0573 -0.2048  0.1932
 5453SOL     OW17808   6.289   5.495   1.250 -0.0145  0.1235 -0.1170
 5453SOL    HW117809   6.259   5.570   1.200  0.6651 -1.1250 -2.5511
 5453SOL    HW217810   6.238   5.498   1.331  1.6208  4.4601  1.0492
 5454SOL     OW17811   4.506   5.255   6.372  0.1646 -0.0901 -0.1285
 5454SOL    HW117812   4.533   5.326   6.431  1.8492  0.1789 -1.1533
 5454SOL    HW217813   4.584   5.237   6.320 -1.0670 -0.7919 -1.8037
 5455SOL     OW17814   5.928   0.154   2.006 -0.4275 -0.1142 -0.0375
 5455SOL    HW117815   6.016   0.133   1.976 -0.4126 -1.4073  0.8246
 5455SOL    HW217816   5.872   0.092   1.960 -0.7182 -0.2693  0.5218
 5456SOL     OW17817   5.422   3.237   5.023 -0.0888 -0.0873  0.4090
 5456SOL    HW117818   5.485   3.258   5.093  0.9387  0.3604 -0.6102
 5456SOL    HW217819   5.420   3.315   4.969  0.0664 -0.8559 -0.7413
 5457SOL     OW17820   2.280   3.644   4.613  0.3823  0.5166  0.1181
 5457SOL    HW117821   2.315   3.559   4.588 -0.9762 -0.2625  0.7790
 5457SOL    HW217822   2.252   3.633   4.704 -1.2991  1.1641 -0.2774
 5458SOL     OW17823   5.117   2.512   1.421 -0.0043  0.3303 -0.1616
 5458SOL    HW117824   5.047   2.447   1.415  0.2398  0.0871 -0.4166
 5458SOL    HW217825   5.197   2.463   1.402  0.3553  0.3797  1.1436
 5459SOL     OW17826   0.353   4.988   4.803 -0.1375  0.4784 -0.2874
 5459SOL    HW117827   0.393   4.901   4.801 -0.5236  0.2888  0.1295
 5459SOL    HW217828   0.398   5.037   4.733  0.7907  0.2562  0.1356
 5460SOL     OW17829   2.092   3.405   2.158 -0.3310 -0.0963  0.6117
 5460SOL    HW117830   2.070   3.343   2.226 -0.4857 -0.1651  0.4993
 5460SOL    HW217831   2.122   3.483   2.205  0.2239 -0.3829  0.7480
 5461SOL     OW17832   1.810   1.002   6.014 -0.1193  0.4925  0.2722
 5461SOL    HW117833   1.878   0.953   5.968 -1.4700 -0.4322 -0.8224
 5461SOL    HW217834   1.743   0.937   6.034 -0.1008  1.0878  2.6146
 5462SOL     OW17835   1.103   2.988   0.917  0.3423  0.0785 -0.3738
 5462SOL    HW117836   1.109   2.904   0.872  0.5634 -0.5972  0.8735
 5462SOL    HW217837   1.178   3.038   0.883  0.4132 -0.3451 -0.8584
 5463SOL     OW17838   5.460   5.162   6.825 -0.3246  0.5409 -0.4226
 5463SOL    HW117839   5.540   5.118   6.798 -0.1919  1.1448 -1.0568
 5463SOL    HW217840   5.393   5.128   6.766 -0.5383  0.0498  0.0947
 5464SOL     OW17841   0.982   4.747   0.687  0.2504 -0.5217  0.6955
 5464SOL    HW117842   0.958   4.720   0.599 -0.6701  1.5241  0.2636
 5464SOL    HW217843   1.075   4.725   0.695  0.9011  1.0557 -1.5499
 5465SOL     OW17844   1.007   3.085   6.232 -0.5804 -0.0384  0.5206
 5465SOL    HW117845   1.101   3.071   6.222 -0.7325 -1.1860  0.5665
 5465SOL    HW217846   0.999   3.144   6.306  0.0565 -1.0823  1.4406
 5466SOL     OW17847   0.663   3.246   2.775  0.6625 -0.2670 -0.5072
 5466SOL    HW117848   0.754   3.274   2.770  0.6271 -0.1271 -0.3881
 5466SOL    HW217849   0.636   3.233   2.684  1.1981 -1.6101 -0.4980
 5467SOL     OW17850   5.917   5.708   0.616  0.4941  0.5286  0.2028
 5467SOL    HW117851   5.922   5.613   0.625  1.1743  0.5745  0.4293
 5467SOL    HW217852   6.006   5.734   0.593 -0.0536  0.9565 -1.5951
 5468SOL     OW17853   0.960   2.597   6.876 -0.1064  0.1106 -0.3661
 5468SOL    HW117854   0.976   2.692   6.880 -1.3993  0.4893 -2.6614
 5468SOL    HW217855   0.866   2.588   6.889  0.2440 -1.0888  1.7748
 5469SOL     OW17856   6.848   1.287   4.651 -0.0764 -0.0769 -0.1741
 5469SOL    HW117857   6.778   1.252   4.596 -0.2507 -0.6381  0.3972
 5469SOL    HW217858   6.923   1.293   4.592 -0.3554 -0.3243 -0.5633
 5470SOL     OW17859   0.940   1.070   3.669 -0.1558  0.0768  0.0608
 5470SOL    HW117860   1.014   1.126   3.691 -0.7395  1.6758 -1.7303
 5470SOL    HW217861   0.932   1.010   3.743  1.7629  1.0507  1.1360
 5471SOL     OW17862   4.484   0.618   3.979  0.2568  0.0417 -0.0195
 5471SOL    HW117863   4.521   0.612   3.891  1.2582  0.5677  0.3426
 5471SOL    HW217864   4.504   0.708   4.007 -1.6573  0.4869  0.0642
 5472SOL     OW17865   0.104   3.562   7.045  0.1852 -0.5460  0.2085
 5472SOL    HW117866   0.054   3.642   7.060 -0.3782 -0.7820 -0.3547
 5472SOL    HW217867   0.114   3.524   7.132  0.0268 -0.1140  0.4201
 5473SOL     OW17868   5.026   0.061   3.903  0.1540  0.2260 -0.3202
 5473SOL    HW117869   4.961   0.000   3.939  0.2547 -0.5655 -1.4338
 5473SOL    HW217870   4.975   0.137   3.876 -0.0286  0.4819  0.6886
 5474SOL     OW17871   0.859   3.684   6.015  0.2520  0.0006  0.5557
 5474SOL    HW117872   0.931   3.624   6.000  0.9247  0.7152  0.8189
 5474SOL    HW217873   0.892   3.769   5.984 -0.5400  0.2965  0.5112
 5475SOL     OW17874   6.184   3.935   3.779 -0.6891 -0.3016  0.6107
 5475SOL    HW117875   6.176   3.947   3.685  1.5529 -0.4194  0.3447
 5475SOL    HW217876   6.127   3.861   3.800  0.1949 -1.4809 -0.9764
 5476SOL     OW17877   3.215   3.849   0.734  0.1553  0.3794  0.4229
 5476SOL    HW117878   3.308   3.850   0.713  0.4705 -4.8922  0.2743
 5476SOL    HW217879   3.171   3.874   0.653  1.4666 -0.9558 -0.7501
 5477SOL     OW17880   6.152   3.472   3.384  0.2893 -0.8076  0.8283
 5477SOL    HW117881   6.162   3.465   3.289 -0.1203  0.0599  0.7098
 5477SOL    HW217882   6.183   3.388   3.418 -0.6520 -1.5842 -0.1495
 5478SOL     OW17883   1.987   0.944   3.114  0.2681  0.1651  0.0216
 5478SOL    HW117884   2.002   1.022   3.060  2.3428 -1.2808 -1.6632
 5478SOL    HW217885   1.933   0.888   3.059  0.5632 -0.4451  0.3482
 5479SOL     OW17886   6.260   5.081   6.663 -0.0055  0.4576  0.1745
 5479SOL    HW117887   6.308   5.164   6.654  0.4761  0.1743  0.1428
 5479SOL    HW217888   6.323   5.014   6.641 -0.8968  0.1589 -1.5955
 5480SOL     OW17889   4.775   6.108   6.695  0.1396 -0.8877  0.4687
 5480SOL    HW117890   4.718   6.094   6.619 -0.9055 -0.8523  1.2229
 5480SOL    HW217891   4.864   6.106   6.659 -0.3504  2.3314 -1.3411
 5481SOL     OW17892   4.988   2.954   4.297  0.3566 -0.0213  0.3043
 5481SOL    HW117893   5.031   2.905   4.367  0.6681  1.3302  1.0908
 5481SOL    HW217894   4.895   2.946   4.316  0.3813 -0.6191  0.1972
 5482SOL     OW17895   3.269   6.881   1.583 -0.0559 -0.2152 -0.0021
 5482SOL    HW117896   3.258   6.849   1.493  0.5564 -0.1558 -0.0993
 5482SOL    HW217897   3.194   6.844   1.630 -0.5176 -0.0432 -0.5891
 5483SOL     OW17898   0.519   3.934   4.488 -0.0356 -0.6768 -0.3485
 5483SOL    HW117899   0.598   3.879   4.482 -0.4213 -1.3228  0.3199
 5483SOL    HW217900   0.448   3.878   4.456  0.0541  0.6317 -3.1149
 5484SOL     OW17901   2.887   3.324   7.137 -0.1477  0.2587  0.0534
 5484SOL    HW117902   2.800   3.285   7.147 -1.0161  2.0586  0.0771
 5484SOL    HW217903   2.929   3.272   7.069 -1.8448  0.2433 -1.0600
 5485SOL     OW17904   0.969   1.169   4.442 -0.9137 -0.3563 -0.2452
 5485SOL    HW117905   0.944   1.235   4.377 -0.6754  0.8812  0.8790
 5485SOL    HW217906   1.065   1.164   4.436 -0.9111 -0.4175 -0.1571
 5486SOL     OW17907   5.315   7.039   0.009 -0.6251  0.8560  0.3221
 5486SOL    HW117908   5.358   7.124  -0.006 -1.8324  1.7904  1.8919
 5486SOL    HW217909   5.233   7.061   0.052 -2.0830 -0.9895 -1.3365
 5487SOL     OW17910   5.251   4.084   4.761 -0.6344 -0.0815 -0.6611
 5487SOL    HW117911   5.316   4.015   4.749  0.4201  0.9450 -0.9833
 5487SOL    HW217912   5.262   4.112   4.852 -0.2032  0.5093 -0.8932
 5488SOL     OW17913   0.976   2.971   5.759  0.1468  0.0627  0.1487
 5488SOL    HW117914   0.954   2.959   5.667 -2.0055  0.2020  0.6091
 5488SOL    HW217915   0.913   2.916   5.806  0.5664  0.7586  1.5824
 5489SOL     OW17916   3.015   0.073   5.153 -0.5903 -0.1399 -0.3515
 5489SOL    HW117917   2.999   0.151   5.101 -0.7338  0.8734  1.1412
 5489SOL    HW217918   2.973   0.002   5.104  0.0570  0.6017 -2.0197
 5490SOL     OW17919   4.235   5.245   4.902  0.2412  0.2196 -0.4966
 5490SOL    HW117920   4.152   5.233   4.856  0.5070 -0.3994 -0.8154
 5490SOL    HW217921   4.301   5.204   4.846  0.7086  0.3299 -0.0413
 5491SOL     OW17922   7.085   1.390   6.526  0.0888  0.6795 -0.3890
 5491SOL    HW117923   7.124   1.303   6.530  1.0206  0.9161 -2.9900
 5491SOL    HW217924   6.990   1.374   6.521  0.2081 -0.1294 -0.1643
 5492SOL     OW17925   6.915   6.665   0.245 -0.0473 -0.5343  0.9482
 5492SOL    HW117926   6.829   6.650   0.284 -1.3205  1.0840 -1.0213
 5492SOL    HW217927   6.926   6.760   0.246 -0.5070 -0.2649 -3.0280
 5493SOL     OW17928   2.312   4.098   2.761 -0.0171 -0.0889 -0.0739
 5493SOL    HW117929   2.304   4.017   2.711  0.2893  0.0763 -0.4032
 5493SOL    HW217930   2.373   4.078   2.831 -1.8176 -0.8402  1.3541
 5494SOL     OW17931   0.962   1.914   3.908  0.9423 -0.2127  0.0063
 5494SOL    HW117932   0.932   1.956   3.827  1.2038 -0.6273 -0.3081
 5494SOL    HW217933   0.926   1.969   3.978 -1.4213 -1.2417 -0.3140
 5495SOL     OW17934   5.606   4.122   5.275 -0.2263 -0.0977 -0.2244
 5495SOL    HW117935   5.584   4.033   5.303 -2.8371  0.1059 -1.2887
 5495SOL    HW217936   5.602   4.118   5.179 -0.4696  1.1919 -0.2856
 5496SOL     OW17937   3.558   0.441   4.039 -0.1955 -0.0909 -0.1777
 5496SOL    HW117938   3.639   0.398   4.012  0.4953  0.9481  0.1735
 5496SOL    HW217939   3.587   0.519   4.086 -1.4022  0.1005  0.2817
 5497SOL     OW17940   2.422   6.856   3.335  0.2170 -0.0294  0.4865
 5497SOL    HW117941   2.443   6.950   3.328  1.4003 -0.3061  0.0399
 5497SOL    HW217942   2.461   6.818   3.257  0.9047 -1.0931  1.3273
 5498SOL     OW17943   3.595   4.659   5.289  0.1373 -0.2668  0.2527
 5498SOL    HW117944   3.661   4.589   5.289 -0.6496 -1.0148  0.3746
 5498SOL    HW217945   3.542   4.642   5.212 -1.4432 -1.1423  1.4878
 5499SOL     OW17946   3.496   0.192   6.969 -0.0286  0.5723 -0.0095
 5499SOL    HW117947   3.548   0.112   6.964 -1.2952 -0.2721 -0.0305
 5499SOL    HW217948   3.429   0.182   6.901 -1.1385  0.9400  0.9842
 5500SOL     OW17949   5.142   0.775   0.236  0.4507 -0.2740 -0.1314
 5500SOL    HW117950   5.121   0.710   0.169  0.0138 -1.5719  1.2242
 5500SOL    HW217951   5.195   0.841   0.190 -0.7775 -0.5261 -1.9974
 5501SOL     OW17952   2.374   4.505   3.357  0.1677  0.1724  0.2169
 5501SOL    HW117953   2.431   4.457   3.297  1.0191 -0.0608  1.1772
 5501SOL    HW217954   2.320   4.437   3.397 -0.6204  0.3626 -0.4898
 5502SOL     OW17955   5.526   6.882   4.755 -0.2494 -0.0309 -0.6495
 5502SOL    HW117956   5.442   6.903   4.796 -1.3302 -0.4110 -2.5519
 5502SOL    HW217957   5.529   6.787   4.752  0.1027 -0.0177 -0.8700
 5503SOL     OW17958   5.788   5.239   1.699 -0.2811  0.4609  0.1622
 5503SOL    HW117959   5.872   5.228   1.655 -0.1813 -1.3450  0.7229
 5503SOL    HW217960   5.808   5.293   1.776 -0.1436  2.1599 -1.0000
 5504SOL     OW17961   5.151   2.485   3.874  0.6636  0.4599 -0.2013
 5504SOL    HW117962   5.129   2.521   3.788 -0.0921  1.6526  0.4708
 5504SOL    HW217963   5.076   2.505   3.929  1.3231  0.1166  0.8607
 5505SOL     OW17964   2.565   7.108   3.369  0.0937 -0.2401 -0.3620
 5505SOL    HW117965   2.540   7.198   3.348  0.9996  0.3197  0.8210
 5505SOL    HW217966   2.645   7.093   3.320  0.5289 -0.0094  0.2630
 5506SOL     OW17967   5.063   1.081   6.781  0.3426  0.2553  0.2110
 5506SOL    HW117968   5.096   1.129   6.705 -0.0342 -0.1092 -0.1876
 5506SOL    HW217969   5.107   0.996   6.777 -0.8983 -0.3795 -0.5404
 5507SOL     OW17970   5.870   7.002   2.864  0.6960 -0.0378  0.2677
 5507SOL    HW117971   5.797   7.063   2.876  0.5168  0.1598 -1.5591
 5507SOL    HW217972   5.861   6.940   2.936 -0.0220  1.1975  1.2898
 5508SOL     OW17973   3.552   2.691   4.756  0.2236 -0.1721  0.2918
 5508SOL    HW117974   3.520   2.751   4.688 -0.5685 -1.3530 -0.4075
 5508SOL    HW217975   3.631   2.733   4.790  0.0053  0.9814 -0.5805
 5509SOL     OW17976   2.178   2.600   4.652  0.1124  0.3416 -0.0410
 5509SOL    HW117977   2.199   2.520   4.699  0.5791  0.7224  0.4159
 5509SOL    HW217978   2.179   2.575   4.559  0.1983 -0.1849  0.0989
 5510SOL     OW17979   0.970   6.003   4.561  0.0354  0.0686 -0.1810
 5510SOL    HW117980   0.892   5.964   4.602  0.5399  0.0875  0.8413
 5510SOL    HW217981   0.949   6.006   4.468 -1.5189  0.8509  0.1616
 5511SOL     OW17982   6.118   0.917   0.968  0.3568 -0.5769  0.1306
 5511SOL    HW117983   6.051   0.902   1.034 -0.5160 -0.7152 -0.7661
 5511SOL    HW217984   6.174   0.839   0.971  1.0526 -0.0514  1.5198
 5512SOL     OW17985   0.088   5.903   6.551  0.3270 -0.3140  0.1129
 5512SOL    HW117986   0.055   5.822   6.588  0.3968  0.5350  2.1537
 5512SOL    HW217987   0.149   5.875   6.483 -0.3903 -1.9396  0.0848
 5513SOL     OW17988   2.727   2.646   2.230 -0.1411  0.1417 -0.6150
 5513SOL    HW117989   2.787   2.624   2.159  1.3722 -0.1421  0.6883
 5513SOL    HW217990   2.670   2.713   2.193 -0.3732 -1.0336 -2.5326
 5514SOL     OW17991   1.384   5.769   4.246  0.0238 -0.4239 -0.4992
 5514SOL    HW117992   1.369   5.689   4.296 -2.0095 -0.3974 -0.9840
 5514SOL    HW217993   1.335   5.836   4.293 -1.1785 -0.2159 -1.9849
 5515SOL     OW17994   6.338   2.960   6.073  0.1374  0.1307  0.1740
 5515SOL    HW117995   6.290   2.888   6.031  0.5361 -0.4555  0.7016
 5515SOL    HW217996   6.430   2.944   6.051  0.3005  0.0772  0.8846
 5516SOL     OW17997   1.495   1.900   4.211  0.0219  0.5059  0.1500
 5516SOL    HW117998   1.412   1.864   4.179  0.2574 -0.2909  0.4219
 5516SOL    HW217999   1.536   1.939   4.134  0.0978 -0.4514 -0.3080
 5517SOL     OW18000   6.350   4.233   6.982 -0.3627 -0.4406  0.3271
 5517SOL    HW118001   6.329   4.217   7.073  0.4075 -0.9121  0.4258
 5517SOL    HW218002   6.437   4.273   6.983 -0.9933  1.0330 -0.1054
 5518SOL     OW18003   1.396   6.197   5.235  0.2761  0.0713  0.3202
 5518SOL    HW118004   1.342   6.239   5.302  0.1936  1.9393 -0.8314
 5518SOL    HW218005   1.334   6.147   5.182  0.5152 -2.6050  2.3677
 5519SOL     OW18006   6.339   2.921   2.389  0.2562 -0.2055  0.1700
 5519SOL    HW118007   6.341   3.017   2.400  0.1830 -0.3092  1.1873
 5519SOL    HW218008   6.270   2.906   2.325  0.7017  0.4614 -0.4852
 5520SOL     OW18009   5.899   5.283   2.707 -0.1619  0.2548 -0.1471
 5520SOL    HW118010   5.903   5.204   2.760  0.2524  0.5885  0.3269
 5520SOL    HW218011   5.975   5.335   2.734 -0.3421  0.7499 -0.5569
 5521SOL     OW18012   2.856   6.939   6.153 -0.1064 -0.3698  0.1120
 5521SOL    HW118013   2.776   6.960   6.202  0.9866  0.3290  1.6782
 5521SOL    HW218014   2.924   6.932   6.220  1.7678  1.9388 -1.3672
 5522SOL     OW18015   2.798   2.579   6.679  0.1628 -0.2550  0.8772
 5522SOL    HW118016   2.859   2.610   6.612 -2.0490  0.1478 -1.0359
 5522SOL    HW218017   2.825   2.625   6.759  1.8086  0.5430 -0.0904
 5523SOL     OW18018   4.873   3.220   0.666 -0.4226 -0.1799 -0.3359
 5523SOL    HW118019   4.894   3.306   0.702 -0.8745 -0.0326 -0.4222
 5523SOL    HW218020   4.937   3.161   0.705 -0.4889  0.0943  0.1894
 5524SOL     OW18021   1.764   3.518   3.818  0.0815  0.1605  0.6415
 5524SOL    HW118022   1.698   3.587   3.807  2.0349  1.7858 -2.5749
 5524SOL    HW218023   1.819   3.549   3.890 -0.0668  1.1088  0.3658
 5525SOL     OW18024   2.891   4.875   4.587 -0.6124 -0.2823  0.4983
 5525SOL    HW118025   2.841   4.908   4.512  0.3263  0.0677  0.0132
 5525SOL    HW218026   2.910   4.784   4.564 -0.5631 -0.2565  0.4365
 5526SOL     OW18027   6.454   7.070   1.848 -0.0084 -0.3795 -0.4134
 5526SOL    HW118028   6.378   7.115   1.811 -0.2247 -2.5923 -2.9847
 5526SOL    HW218029   6.424   6.981   1.864  1.1949 -0.4762  1.7826
 5527SOL     OW18030   1.341   4.531   5.053 -0.3870  0.1876 -0.0779
 5527SOL    HW118031   1.391   4.503   4.977  2.1052  2.0859  0.7360
 5527SOL    HW218032   1.406   4.568   5.112 -2.6684  2.0380  1.4461
 5528SOL     OW18033   0.739   0.607   0.062  0.8053  0.1673  0.1069
 5528SOL    HW118034   0.784   0.575   0.140 -0.5373 -0.8995  0.4978
 5528SOL    HW218035   0.759   0.542  -0.006 -0.8426 -0.8515  0.5400
 5529SOL     OW18036   1.502   0.264   4.063 -0.6488 -0.0382  0.0576
 5529SOL    HW118037   1.437   0.331   4.086 -0.7873  0.5980 -1.9845
 5529SOL    HW218038   1.454   0.204   4.006  0.4343  0.2108 -1.1413
 5530SOL     OW18039   1.461   7.139   6.256 -0.0525 -0.5820  0.2526
 5530SOL    HW118040   1.543   7.149   6.304  0.0168 -0.2774  0.0767
 5530SOL    HW218041   1.443   7.227   6.221 -1.4268 -0.1840  1.8599
 5531SOL     OW18042   1.149   5.476   0.043  0.0186 -0.3385 -0.0095
 5531SOL    HW118043   1.070   5.444  -0.002 -0.4647  0.2016  0.4422
 5531SOL    HW218044   1.202   5.397   0.056 -0.7778 -0.8314  0.3400
 5532SOL     OW18045   2.085   6.344   5.010 -0.1737 -0.3331  0.0548
 5532SOL    HW118046   1.990   6.342   5.003 -0.2516 -1.9013  0.9875
 5532SOL    HW218047   2.115   6.293   4.934 -0.1530 -0.8697  0.4140
 5533SOL     OW18048   5.459   3.934   1.496  0.4281 -0.0464 -0.4952
 5533SOL    HW118049   5.435   4.027   1.504 -2.9156 -0.7832 -0.1712
 5533SOL    HW218050   5.512   3.929   1.417  1.9375  2.2933  0.2699
 5534SOL     OW18051   1.541   5.447   0.241 -0.3600 -0.2297  0.4486
 5534SOL    HW118052   1.513   5.465   0.152  0.8417 -1.5726 -0.2561
 5534SOL    HW218053   1.466   5.468   0.295 -0.7084  1.7853 -0.7387
 5535SOL     OW18054   2.121   3.060   4.494 -0.1545  0.6512  0.3084
 5535SOL    HW118055   2.142   3.001   4.567 -1.0036  2.7765  2.4017
 5535SOL    HW218056   2.201   3.064   4.443  0.0388 -1.9819  0.2925
 5536SOL     OW18057   0.404   2.712   6.278 -0.3390  0.3681  0.2903
 5536SOL    HW118058   0.309   2.706   6.271 -0.5281  1.3196  1.6722
 5536SOL    HW218059   0.427   2.649   6.346  0.0749 -0.0410 -0.2114
 5537SOL     OW18060   5.272   1.452   2.451  0.2325 -0.3058 -0.0013
 5537SOL    HW118061   5.354   1.412   2.480 -0.7534 -1.3984  1.4643
 5537SOL    HW218062   5.278   1.452   2.355  2.2537  0.4057  0.0731
 5538SOL     OW18063   0.114   3.252   1.723  0.0959  0.2750  0.6529
 5538SOL    HW118064   0.039   3.276   1.776 -3.0425 -0.3577 -3.0601
 5538SOL    HW218065   0.108   3.157   1.715 -0.4256  0.4559 -1.8368
 5539SOL     OW18066   4.873   3.673   6.096  0.2087  0.0324  0.2610
 5539SOL    HW118067   4.876   3.613   6.022 -0.7023  0.5549 -0.2070
 5539SOL    HW218068   4.943   3.642   6.154 -0.0510 -1.2940 -0.1042
 5540SOL     OW18069   6.989   2.094   4.576  0.3063 -0.8706  0.1642
 5540SOL    HW118070   6.994   2.179   4.620  2.6871 -0.0758 -1.4255
 5540SOL    HW218071   6.909   2.098   4.524 -0.3568 -0.1880  1.2119
 5541SOL     OW18072   3.475   0.892   2.422  0.6155  0.0373  0.0015
 5541SOL    HW118073   3.530   0.918   2.496  1.1886 -1.4270  0.1176
 5541SOL    HW218074   3.385   0.905   2.453  0.8328  2.3696 -0.1601
 5542SOL     OW18075   4.383   3.249   6.878 -0.5307 -0.2245  0.7779
 5542SOL    HW118076   4.450   3.256   6.946 -0.9373  0.3411  1.1325
 5542SOL    HW218077   4.301   3.266   6.923 -0.8971 -0.7212  0.3087
 5543SOL     OW18078   6.546   6.220   0.847  0.2688  0.2044 -0.1278
 5543SOL    HW118079   6.516   6.309   0.828  1.8384  0.9262  0.5699
 5543SOL    HW218080   6.596   6.229   0.929  2.3829 -0.8735 -1.2187
 5544SOL     OW18081   6.556   5.524   4.827  0.4794 -0.6733  0.2927
 5544SOL    HW118082   6.589   5.591   4.768 -0.4990 -0.9508 -0.5982
 5544SOL    HW218083   6.630   5.465   4.842  1.3748  0.6019  1.1377
 5545SOL     OW18084   5.699   3.137   1.819  0.4684 -0.4893 -0.4213
 5545SOL    HW118085   5.624   3.182   1.859  0.1060 -0.0723 -1.5364
 5545SOL    HW218086   5.761   3.207   1.799  0.1791 -0.5425 -1.5764
 5546SOL     OW18087   5.302   3.677   0.384 -0.1603  0.0088 -0.1318
 5546SOL    HW118088   5.230   3.669   0.447 -0.5303  0.5882 -0.4726
 5546SOL    HW218089   5.267   3.641   0.303 -0.2259  0.7067 -0.4192
 5547SOL     OW18090   3.154   6.679   4.985 -0.2390  0.7114 -0.0164
 5547SOL    HW118091   3.200   6.738   5.045 -2.3193 -0.4126  2.9055
 5547SOL    HW218092   3.096   6.736   4.935  0.8853  1.5793 -0.3758
 5548SOL     OW18093   5.920   1.924   0.036  0.3530 -0.3633  0.1345
 5548SOL    HW118094   5.897   1.831   0.039 -1.8562  0.0616 -1.1631
 5548SOL    HW218095   5.893   1.952  -0.051  0.1948  1.6971  0.8008
 5549SOL     OW18096   1.758   2.733   3.024  0.1975 -0.8317 -0.2744
 5549SOL    HW118097   1.741   2.706   3.114  1.3422 -4.9986 -1.1225
 5549SOL    HW218098   1.681   2.702   2.975 -0.2852  1.1445 -0.8716
 5550SOL     OW18099   0.342   4.218   5.121 -0.2047  0.3447  0.5727
 5550SOL    HW118100   0.345   4.177   5.207 -2.1366 -0.3365  0.3627
 5550SOL    HW218101   0.410   4.173   5.071  0.8720  0.6833  1.6846
 5551SOL     OW18102   2.275   7.014   6.439  0.0176 -0.3421  0.9084
 5551SOL    HW118103   2.313   7.085   6.387  2.4309  0.1593  3.1235
 5551SOL    HW218104   2.230   6.959   6.375 -0.8669  2.4257 -1.0764
 5552SOL     OW18105   1.502   1.878   0.458 -0.4374  0.1791  0.2629
 5552SOL    HW118106   1.579   1.900   0.510  0.5574  0.0020 -1.0975
 5552SOL    HW218107   1.471   1.963   0.424 -0.9964  0.2764  0.9825
 5553SOL     OW18108   0.909   6.628   4.293  0.2758 -0.4934 -0.6323
 5553SOL    HW118109   0.939   6.680   4.367 -0.5479 -0.4861 -0.2919
 5553SOL    HW218110   0.973   6.645   4.224  1.0946 -0.5573  0.0907
 5554SOL     OW18111   1.904   6.557   2.664  0.2149 -0.0173  0.3336
 5554SOL    HW118112   1.866   6.598   2.587 -0.0617 -0.5088  0.2052
 5554SOL    HW218113   1.998   6.569   2.654  0.0914  2.0613  1.1287
 5555SOL     OW18114   5.561   6.299   0.142  0.7403 -0.0506  0.2600
 5555SOL    HW118115   5.536   6.388   0.120  2.1603  0.1266 -0.7610
 5555SOL    HW218116   5.656   6.302   0.149  0.7337 -1.2835  1.2022
 5556SOL     OW18117   3.400   6.254   4.502 -0.2121 -0.2300 -0.4606
 5556SOL    HW118118   3.385   6.161   4.483 -0.4322 -0.0981 -0.9313
 5556SOL    HW218119   3.494   6.260   4.518 -0.2960 -0.6534  0.2530
 5557SOL     OW18120   2.071   5.347   3.797 -0.1469 -0.2629  0.0714
 5557SOL    HW118121   2.103   5.427   3.840 -0.3697  0.4782 -1.0984
 5557SOL    HW218122   2.040   5.292   3.869 -1.5575  1.4038  0.8282
 5558SOL     OW18123   2.022   1.517   5.821 -0.2214  0.0751  0.0969
 5558SOL    HW118124   1.944   1.572   5.817  0.0936  0.5981  0.9173
 5558SOL    HW218125   2.015   1.461   5.743 -0.5710  1.2337 -0.7438
 5559SOL     OW18126   3.225   3.143   6.148 -0.3548 -0.5574  0.0416
 5559SOL    HW118127   3.254   3.170   6.060 -0.8734  1.1608  0.3515
 5559SOL    HW218128   3.304   3.109   6.190  0.4672  0.8322 -0.3087
 5560SOL     OW18129   6.331   5.334   2.348 -0.0490  0.0677 -0.1245
 5560SOL    HW118130   6.316   5.423   2.317  0.0054 -0.5033 -1.9447
 5560SOL    HW218131   6.243   5.294   2.350  0.2040 -0.8465 -2.8333
 5561SOL     OW18132   2.131   4.042   3.988  0.2159  0.8217 -0.2342
 5561SOL    HW118133   2.075   4.117   4.008 -1.2232 -0.4731  0.8212
 5561SOL    HW218134   2.094   4.005   3.908  0.8531  1.1542 -0.6888
 5562SOL     OW18135   3.143   1.894   6.297  0.5251  0.3767  0.6305
 5562SOL    HW118136   3.192   1.976   6.304 -0.8700  1.4191 -1.0752
 5562SOL    HW218137   3.052   1.919   6.314 -0.0903 -0.5779 -1.0478
 5563SOL     OW18138   0.868   6.801   6.908 -0.2483 -0.1688  0.4386
 5563SOL    HW118139   0.831   6.713   6.920 -1.6226  0.1405 -1.2112
 5563SOL    HW218140   0.960   6.791   6.932 -0.5470 -1.8532  1.0759
 5564SOL     OW18141   1.800   1.396   6.503 -0.2102  0.8673  0.3323
 5564SOL    HW118142   1.829   1.485   6.486  1.1407  0.2217 -0.9454
 5564SOL    HW218143   1.880   1.344   6.507 -1.0198 -0.5797 -0.7537
 5565SOL     OW18144   0.777   2.565   4.043 -0.8347  0.8123  0.2359
 5565SOL    HW118145   0.795   2.563   3.949 -0.9192 -0.8348  0.2307
 5565SOL    HW218146   0.697   2.513   4.054 -0.5451  0.5563  1.2770
 5566SOL     OW18147   1.450   5.629   1.768  1.2640 -0.3540  0.4356
 5566SOL    HW118148   1.530   5.577   1.764  0.5796 -1.4332  0.5004
 5566SOL    HW218149   1.442   5.653   1.861  1.0032 -1.0839  0.6096
 5567SOL     OW18150   6.019   5.081   1.882  0.3278 -0.9857 -0.2108
 5567SOL    HW118151   5.939   5.098   1.832 -0.1601 -0.9549  0.5606
 5567SOL    HW218152   6.006   5.128   1.964  0.2371 -2.6520  0.7688
 5568SOL     OW18153   1.396   3.807   2.085  0.0563 -0.1025  0.4671
 5568SOL    HW118154   1.306   3.787   2.112 -1.1518  0.7712 -2.5071
 5568SOL    HW218155   1.406   3.901   2.100  0.2048 -0.0630  0.1367
 5569SOL     OW18156   6.780   5.029   6.170  0.7107  0.0618 -0.3853
 5569SOL    HW118157   6.689   5.058   6.183 -0.0092 -1.4832 -1.5703
 5569SOL    HW218158   6.831   5.110   6.168 -0.7352  1.0126 -0.3483
 5570SOL     OW18159   0.053   5.205   7.140  0.0733 -0.3061 -0.3711
 5570SOL    HW118160   0.056   5.240   7.051  1.9002  0.5116 -0.0290
 5570SOL    HW218161   0.103   5.123   7.135  0.5778 -0.0243 -0.0193
 5571SOL     OW18162   5.123   2.610   6.421  0.9577  0.1304 -0.3559
 5571SOL    HW118163   5.159   2.521   6.425 -0.1376 -0.6048 -3.6775
 5571SOL    HW218164   5.193   2.662   6.382  0.9489  0.3330 -0.1029
 5572SOL     OW18165   6.439   3.768   4.722  0.2707  0.0740  0.6509
 5572SOL    HW118166   6.393   3.851   4.713  1.5344  0.8568  1.2091
 5572SOL    HW218167   6.493   3.778   4.800  1.7032 -0.6484 -0.1941
 5573SOL     OW18168   3.706   2.012   2.923  1.0188 -0.0574 -0.2541
 5573SOL    HW118169   3.795   2.027   2.956  0.6383 -0.1342  0.8498
 5573SOL    HW218170   3.717   1.955   2.847  1.8152 -1.2484  0.7221
 5574SOL     OW18171   6.523   4.938   6.792 -0.1257 -0.1025 -0.2352
 5574SOL    HW118172   6.497   4.849   6.770  0.4387  0.0564 -1.6330
 5574SOL    HW218173   6.616   4.942   6.770  0.1832  0.4522  1.0797
 5575SOL     OW18174   2.704   2.739   4.231 -0.0417  0.5003  0.3839
 5575SOL    HW118175   2.742   2.694   4.306 -0.7523  0.8108  0.9500
 5575SOL    HW218176   2.614   2.757   4.258 -0.6236 -0.2855 -0.9426
 5576SOL     OW18177   2.596   0.864   6.785 -0.1828 -0.3234 -0.0209
 5576SOL    HW118178   2.553   0.891   6.704 -0.1611 -1.0479 -0.2837
 5576SOL    HW218179   2.673   0.815   6.756 -0.3348 -0.8427  0.4288
 5577SOL     OW18180   3.387   3.823   6.725  0.0770 -0.0617 -0.0558
 5577SOL    HW118181   3.345   3.778   6.798  0.3483 -0.2767 -0.0331
 5577SOL    HW218182   3.451   3.881   6.766  1.8091 -1.7883 -0.2002
 5578SOL     OW18183   7.037   2.318   0.362 -0.9560 -0.9571  0.1592
 5578SOL    HW118184   7.086   2.248   0.318  0.5812  0.1962 -0.0453
 5578SOL    HW218185   7.011   2.281   0.446  0.9680 -1.3748  0.6084
 5579SOL     OW18186   1.539   6.952   2.895  0.2647  0.4490 -0.0475
 5579SOL    HW118187   1.557   6.860   2.876 -0.4280  0.0360  1.2332
 5579SOL    HW218188   1.480   6.951   2.970 -1.0593  1.8975 -0.9966
 5580SOL     OW18189   1.251   2.262   5.381 -0.1713  0.3671  0.3440
 5580SOL    HW118190   1.340   2.276   5.413 -0.3131  1.0151  0.4590
 5580SOL    HW218191   1.195   2.304   5.446 -0.7413 -2.2632  1.7043
 5581SOL     OW18192   1.852   2.856   6.677  0.1182  0.6550 -0.1214
 5581SOL    HW118193   1.928   2.810   6.639 -1.4274 -0.1895 -2.4176
 5581SOL    HW218194   1.855   2.943   6.638  1.5817  1.7635  2.2332
 5582SOL     OW18195   0.903   6.462   1.405 -0.3013  0.4089  0.4676
 5582SOL    HW118196   0.942   6.451   1.491 -1.0957  1.2345  0.9500
 5582SOL    HW218197   0.856   6.545   1.410  0.3236  0.8824 -1.0278
 5583SOL     OW18198   1.236   0.462   4.612 -0.5224 -0.5350  0.4128
 5583SOL    HW118199   1.331   0.455   4.612 -0.4909 -1.2153 -2.4582
 5583SOL    HW218200   1.206   0.371   4.625 -0.6783 -0.8221 -1.6694
 5584SOL     OW18201   5.775   5.730   5.209  0.6017 -0.0496 -0.0684
 5584SOL    HW118202   5.817   5.655   5.252 -0.7668 -1.1907 -0.6116
 5584SOL    HW218203   5.812   5.732   5.121 -0.9251 -1.5414 -0.8118
 5585SOL     OW18204   5.664   0.001   5.407 -0.0465  0.2963  0.0736
 5585SOL    HW118205   5.627   0.059   5.341 -0.4782 -0.2188 -0.1473
 5585SOL    HW218206   5.737   0.050   5.444  0.4190  0.4531 -1.0257
 5586SOL     OW18207   6.864   3.723   3.764 -0.6013 -0.1365  0.3151
 5586SOL    HW118208   6.807   3.670   3.819 -0.2488 -0.5698  0.2642
 5586SOL    HW218209   6.881   3.669   3.688 -0.4322  0.1488  0.1478
 5587SOL     OW18210   6.029   4.720   4.773  0.0267 -0.2358 -0.6420
 5587SOL    HW118211   6.084   4.776   4.718  1.5946 -1.3328 -0.2673
 5587SOL    HW218212   6.041   4.755   4.861 -0.3614 -0.1160 -0.6347
 5588SOL     OW18213   4.435   2.579   5.017  0.0102 -0.3517  0.0540
 5588SOL    HW118214   4.424   2.530   5.099 -0.4465 -0.5890 -0.1405
 5588SOL    HW218215   4.433   2.671   5.043 -4.0802 -0.2259 -0.0143
 5589SOL     OW18216   4.132   2.101   3.524  0.0893  0.0804  0.2710
 5589SOL    HW118217   4.227   2.100   3.513  0.1061  0.0225  0.4290
 5589SOL    HW218218   4.099   2.115   3.435  0.2383 -0.1601  0.1739
 5590SOL     OW18219   4.470   7.141   5.749 -0.1004  0.1641  0.0490
 5590SOL    HW118220   4.407   7.169   5.815  0.1175  0.5575  0.0894
 5590SOL    HW218221   4.431   7.061   5.712 -1.4444  1.3128 -1.1078
 5591SOL     OW18222   1.506   5.622   3.242  0.4240  0.3786  0.4227
 5591SOL    HW118223   1.443   5.556   3.270 -0.1586  1.0145  0.6222
 5591SOL    HW218224   1.562   5.576   3.180 -1.6537  0.3824 -1.5831
 5592SOL     OW18225   5.675   2.022   4.134  0.6757  0.0289 -0.2550
 5592SOL    HW118226   5.647   2.102   4.178 -0.0188  0.1536 -0.8992
 5592SOL    HW218227   5.703   2.051   4.047 -1.5170 -0.6230 -1.2707
 5593SOL     OW18228   0.961   4.475   5.425 -0.2439 -0.2184  0.2046
 5593SOL    HW118229   0.875   4.435   5.436 -0.4300  0.4600  1.3919
 5593SOL    HW218230   0.979   4.469   5.331 -2.5850  1.6203 -0.4556
 5594SOL     OW18231   5.530   2.913   0.407  0.0540  0.2026 -0.1137
 5594SOL    HW118232   5.608   2.927   0.460  2.6609  0.5153 -3.7131
 5594SOL    HW218233   5.528   2.987   0.347 -2.3398 -0.4742 -0.9743
 5595SOL     OW18234   5.261   6.999   6.643 -0.3544  0.4942 -0.0093
 5595SOL    HW118235   5.321   7.073   6.648 -0.0566  0.2026  0.9936
 5595SOL    HW218236   5.306   6.936   6.586  0.8619 -0.1952  1.6250
 5596SOL     OW18237   0.593   2.231   3.912  0.1710  0.3120 -0.1824
 5596SOL    HW118238   0.589   2.308   3.969  0.9969  0.6133 -0.5182
 5596SOL    HW218239   0.616   2.159   3.970 -2.2009 -0.0289  0.4381
 5597SOL     OW18240   3.780   2.768   1.836  0.3696  0.1346  0.3730
 5597SOL    HW118241   3.856   2.791   1.783  1.6253 -1.7777  1.2382
 5597SOL    HW218242   3.750   2.685   1.800 -1.4216  0.8764  0.0046
 5598SOL     OW18243   6.242   4.761   5.323 -0.5939 -0.6669  0.5888
 5598SOL    HW118244   6.324   4.782   5.369  0.8070 -0.7239 -1.7501
 5598SOL    HW218245   6.216   4.676   5.359  1.5110 -1.6362 -0.0030
 5599SOL     OW18246   1.724   7.052   6.356  0.6917  0.2255  0.5858
 5599SOL    HW118247   1.795   7.027   6.296 -1.5187 -2.3151 -1.2264
 5599SOL    HW218248   1.699   6.970   6.398 -0.8040  1.1783  1.6245
 5600SOL     OW18249   5.590   3.309   3.807  0.0121 -0.0053 -0.0070
 5600SOL    HW118250   5.555   3.384   3.854  2.0503 -0.2176  2.0269
 5600SOL    HW218251   5.562   3.233   3.858  0.9685 -0.3651  0.0034
 5601SOL     OW18252   4.177   1.399   1.650 -0.1820 -0.4269  0.1342
 5601SOL    HW118253   4.159   1.447   1.730  0.1832  0.4390 -0.2871
 5601SOL    HW218254   4.112   1.329   1.648 -0.9930  0.3045  0.5551
 5602SOL     OW18255   5.082   0.007   5.557 -0.2772  0.3209  0.0147
 5602SOL    HW118256   5.098  -0.005   5.651  1.0245 -0.7079 -0.3008
 5602SOL    HW218257   5.069  -0.082   5.524  0.8358  0.5115 -1.0110
 5603SOL     OW18258   6.646   0.492   0.966 -0.3288  0.4519  0.0603
 5603SOL    HW118259   6.567   0.484   1.018 -1.8294 -0.4301 -2.2089
 5603SOL    HW218260   6.677   0.402   0.954 -0.3346  0.5747 -0.9828
 5604SOL     OW18261   6.046   6.499   3.115 -0.2818  0.1303  0.3963
 5604SOL    HW118262   6.045   6.522   3.208  1.5517 -1.8202  0.9751
 5604SOL    HW218263   5.963   6.454   3.100 -0.4443  0.1538  1.1849
 5605SOL     OW18264   3.607   4.319   1.157  0.1213  0.3409 -0.6436
 5605SOL    HW118265   3.677   4.280   1.209  1.5522 -0.0583 -2.7430
 5605SOL    HW218266   3.610   4.412   1.179  0.9921  0.2504 -0.3317
 5606SOL     OW18267   2.559   1.398   4.200 -0.0961  0.4486 -0.1223
 5606SOL    HW118268   2.613   1.466   4.161  1.6037  0.0192  1.3597
 5606SOL    HW218269   2.595   1.316   4.167  1.0461  0.1021  1.8468
 5607SOL     OW18270   1.794   4.964   1.968  0.1962  0.4816 -0.3354
 5607SOL    HW118271   1.739   4.959   1.890  2.3319 -0.4769 -1.8920
 5607SOL    HW218272   1.803   4.873   1.997 -0.0544  0.7660  0.6680
 5608SOL     OW18273   4.668   5.423   6.168  0.4608  0.0014  0.0959
 5608SOL    HW118274   4.701   5.441   6.080 -0.2621 -0.5470 -0.2984
 5608SOL    HW218275   4.689   5.502   6.218  1.7353 -0.0594 -0.3107
 5609SOL     OW18276   1.139   1.102   3.134  0.0166  0.7149  0.1851
 5609SOL    HW118277   1.180   1.015   3.128 -0.9995  0.1849  0.5608
 5609SOL    HW218278   1.058   1.086   3.182  1.2687  2.3999  3.1171
 5610SOL     OW18279   3.669   0.129   6.192  0.8084  0.3574  0.2361
 5610SOL    HW118280   3.603   0.107   6.257  0.5005  0.6764  0.0362
 5610SOL    HW218281   3.744   0.073   6.213  0.1616 -0.6441 -0.0559
 5611SOL     OW18282   4.545   6.835   2.867  0.0061  0.0665  0.3386
 5611SOL    HW118283   4.467   6.875   2.829 -0.2290  1.6294  2.3396
 5611SOL    HW218284   4.525   6.826   2.960  1.2012 -2.0747  0.4684
 5612SOL     OW18285   6.420   2.843   4.194  0.1002  0.0178 -0.4405
 5612SOL    HW118286   6.376   2.876   4.272  0.9080 -1.2341  0.5921
 5612SOL    HW218287   6.407   2.748   4.196 -0.0235 -0.0348 -1.9494
 5613SOL     OW18288   2.983   2.743   6.180  0.6151  0.0221 -1.1171
 5613SOL    HW118289   3.039   2.768   6.107  0.8895 -1.6769 -1.5311
 5613SOL    HW218290   2.982   2.647   6.178 -0.2193 -0.0395  0.4710
 5614SOL     OW18291   5.833   2.706   5.182  0.2202 -0.4274 -0.3903
 5614SOL    HW118292   5.805   2.666   5.100 -0.2971 -2.0495  0.5256
 5614SOL    HW218293   5.787   2.790   5.186  0.9658  0.1003 -2.1554
 5615SOL     OW18294   2.779   2.976   6.954  0.2219 -0.2450 -0.0183
 5615SOL    HW118295   2.692   3.010   6.978  0.3020 -0.0068 -0.0607
 5615SOL    HW218296   2.767   2.881   6.949 -0.1692 -0.1774 -0.5464
 5616SOL     OW18297   0.444   6.277   6.048 -0.6954  0.0986 -0.2168
 5616SOL    HW118298   0.518   6.329   6.079  1.0053 -1.8369 -0.7881
 5616SOL    HW218299   0.381   6.342   6.016  0.4986  1.8442  0.7865
 5617SOL     OW18300   0.737   4.683   0.853 -0.1650  1.4139  0.0469
 5617SOL    HW118301   0.829   4.659   0.842  0.0551  2.5600 -0.7484
 5617SOL    HW218302   0.700   4.612   0.906  1.6175  1.8585  2.0158
 5618SOL     OW18303   5.048   1.762   1.218 -0.2178 -0.0059 -0.1271
 5618SOL    HW118304   4.954   1.758   1.235  0.1517  0.4471  2.2396
 5618SOL    HW218305   5.069   1.855   1.214 -0.1164 -0.0611 -2.5463
 5619SOL     OW18306   0.430   2.747   2.297 -0.1149  0.0098 -0.2238
 5619SOL    HW118307   0.338   2.758   2.274 -0.3133 -1.4769 -0.2439
 5619SOL    HW218308   0.478   2.767   2.217 -0.3771  1.0740 -0.1372
 5620SOL     OW18309   2.014   2.038   3.058 -0.2038  0.4194 -0.5786
 5620SOL    HW118310   2.017   1.956   3.107 -1.4871  0.8879  0.3214
 5620SOL    HW218311   2.096   2.083   3.082 -1.2309  1.0752  1.9876
 5621SOL     OW18312   0.019   0.594   6.853 -0.1398  0.5782 -0.2225
 5621SOL    HW118313  -0.024   0.533   6.914  0.7518  0.5144  0.3708
 5621SOL    HW218314  -0.053   0.640   6.811 -0.8141 -0.2402 -0.0072
 5622SOL     OW18315   6.015   3.048   6.259 -0.0074 -0.2676 -0.1844
 5622SOL    HW118316   5.926   3.048   6.224  0.2587  1.0982 -0.9611
 5622SOL    HW218317   6.004   3.050   6.354 -0.8836  1.8490 -0.2698
 5623SOL     OW18318   3.221   3.407   6.277 -0.2905  0.0101 -0.1260
 5623SOL    HW118319   3.131   3.409   6.309  0.3696  0.1771  1.9144
 5623SOL    HW218320   3.234   3.318   6.246 -0.7458 -0.4515  0.9492
 5624SOL     OW18321   3.306   1.650   5.357  0.0781  0.3574 -0.0269
 5624SOL    HW118322   3.286   1.556   5.361 -1.4571  0.6894  0.9847
 5624SOL    HW218323   3.331   1.666   5.266 -2.0692 -0.5959 -0.8301
 5625SOL     OW18324   6.092   2.912   3.353  0.1262  0.8194  0.2611
 5625SOL    HW118325   6.099   2.991   3.406  2.5324  0.6120  0.3742
 5625SOL    HW218326   6.109   2.840   3.414  1.7778  0.5044 -0.5062
 5626SOL     OW18327   6.715   6.430   2.099 -0.0324 -0.0580 -0.3940
 5626SOL    HW118328   6.746   6.341   2.084  2.7219  1.0822 -2.3397
 5626SOL    HW218329   6.654   6.446   2.027 -0.4105 -0.3014 -0.1320
 5627SOL     OW18330   3.881   2.561   4.982  0.3566  0.2446  0.1683
 5627SOL    HW118331   3.957   2.618   4.996 -0.7429  1.8982 -0.2873
 5627SOL    HW218332   3.845   2.546   5.069  0.3957  0.6421  0.2553
 5628SOL     OW18333   6.943   3.695   5.599  0.0968 -0.4028 -0.5927
 5628SOL    HW118334   6.983   3.779   5.624  0.2955 -0.5180 -0.5155
 5628SOL    HW218335   6.981   3.632   5.660  0.6727 -0.7052 -1.2503
 5629SOL     OW18336   5.977   0.935   1.217 -0.2576  0.4065  0.1842
 5629SOL    HW118337   5.898   0.924   1.269 -0.3570  0.1618 -0.0226
 5629SOL    HW218338   6.041   0.876   1.258 -0.4064  0.0323 -0.1162
 5630SOL     OW18339   5.808   1.492   5.250  0.6215  0.0489 -0.2904
 5630SOL    HW118340   5.833   1.528   5.334  0.8952 -1.2405  0.2108
 5630SOL    HW218341   5.730   1.439   5.269  0.3419  0.2170 -0.9512
 5631SOL     OW18342   4.463   0.086   6.982 -0.1839  0.4802 -0.2544
 5631SOL    HW118343   4.379   0.047   7.006 -0.6580  1.8815  0.4425
 5631SOL    HW218344   4.486   0.044   6.898 -0.5850 -1.3621  0.5083
 5632SOL     OW18345   0.743   6.592   0.305  0.2592  0.2310 -0.4204
 5632SOL    HW118346   0.734   6.688   0.301  0.2593  0.2200 -0.6830
 5632SOL    HW218347   0.703   6.561   0.224 -0.2300 -0.0286 -0.0893
 5633SOL     OW18348   0.586   4.027   5.225 -0.3286  0.5941  0.1763
 5633SOL    HW118349   0.562   4.079   5.302  1.2238  1.0270  0.4116
 5633SOL    HW218350   0.682   4.024   5.227 -0.2705  0.2345 -1.5002
 5634SOL     OW18351   4.701   4.304   4.764  0.2977 -0.2444 -0.3827
 5634SOL    HW118352   4.628   4.362   4.745 -0.1558 -0.9499 -0.8391
 5634SOL    HW218353   4.740   4.340   4.844 -1.4916 -0.7299  0.7827
 5635SOL     OW18354   6.739   3.525   0.230 -0.1429 -0.6469  0.8319
 5635SOL    HW118355   6.671   3.460   0.247 -0.3094 -0.5011  0.7352
 5635SOL    HW218356   6.715   3.600   0.285 -1.4275  0.3432 -0.9295
 5636SOL     OW18357   1.403   5.365   1.456 -0.5542  0.1976 -0.0960
 5636SOL    HW118358   1.497   5.373   1.472 -0.4586 -2.1148  0.8186
 5636SOL    HW218359   1.394   5.373   1.361  0.4836  0.8893 -0.1572
 5637SOL     OW18360   6.378   0.902   7.136  0.0752 -0.0275 -0.6733
 5637SOL    HW118361   6.365   0.873   7.045  1.3418  2.1576 -1.6163
 5637SOL    HW218362   6.366   0.997   7.133 -0.9179 -0.0080  1.6957
 5638SOL     OW18363   4.150   4.174   3.259  0.6032 -0.0296 -0.2489
 5638SOL    HW118364   4.237   4.140   3.278  0.4945  0.2733  0.8264
 5638SOL    HW218365   4.093   4.135   3.325 -0.0098  0.0942 -0.6908
 5639SOL     OW18366   5.180   1.492   0.242 -0.4744 -0.1241 -0.1144
 5639SOL    HW118367   5.162   1.574   0.288  1.2258 -0.8855  2.0639
 5639SOL    HW218368   5.252   1.513   0.183 -0.2885  0.0394  0.1708
 5640SOL     OW18369   6.228   5.970   5.408 -0.2453 -0.0189 -0.0710
 5640SOL    HW118370   6.211   5.891   5.460 -0.3146  0.5134  0.7238
 5640SOL    HW218371   6.166   6.035   5.442 -0.1904  0.3870 -0.7220
 5641SOL     OW18372   5.665   5.294   1.440 -0.5229  0.4528 -0.4894
 5641SOL    HW118373   5.660   5.268   1.532 -1.3685  1.0031 -0.3679
 5641SOL    HW218374   5.680   5.212   1.393  0.6244  0.2603  0.1839
 5642SOL     OW18375   6.935   3.345   5.002  0.5396  0.2640 -0.1158
 5642SOL    HW118376   7.018   3.392   4.992 -0.6924  2.7031  0.2456
 5642SOL    HW218377   6.895   3.348   4.915  0.3856  0.0398 -0.0533
 5643SOL     OW18378   1.342   4.466   6.325  0.5953 -0.1876  0.0825
 5643SOL    HW118379   1.265   4.476   6.268  1.7570  2.0030 -1.2801
 5643SOL    HW218380   1.392   4.395   6.285  1.1849  1.0443 -1.5182
 5644SOL     OW18381   5.178   3.868   6.355 -0.5630 -0.4795 -0.2120
 5644SOL    HW118382   5.101   3.833   6.310 -0.2760 -2.3991  0.6878
 5644SOL    HW218383   5.142   3.907   6.435 -0.8977  1.5649 -1.2799
 5645SOL     OW18384   6.767   4.292   5.203  0.1028 -0.1478 -1.0507
 5645SOL    HW118385   6.671   4.297   5.209 -0.2936 -2.8812 -3.2188
 5645SOL    HW218386   6.787   4.201   5.223  2.5463  0.7522  1.1904
 5646SOL     OW18387   4.751   5.058   6.451 -0.1882 -0.4146  0.0872
 5646SOL    HW118388   4.661   5.064   6.484  0.1115  0.5954  0.7808
 5646SOL    HW218389   4.741   5.048   6.356 -1.0300 -0.0763  0.1316
 5647SOL     OW18390   5.328   6.085   2.457  0.3853 -0.2518  0.3386
 5647SOL    HW118391   5.265   6.044   2.397 -1.3313 -0.0725  1.9540
 5647SOL    HW218392   5.349   6.169   2.415 -0.4622 -0.3115 -0.2352
 5648SOL     OW18393   2.317   6.387   1.593 -0.3866 -0.5521  0.0520
 5648SOL    HW118394   2.298   6.382   1.687  0.8448  0.4351  0.3847
 5648SOL    HW218395   2.283   6.473   1.567 -1.5080 -1.1690 -0.6318
 5649SOL     OW18396   0.021   1.172   1.734 -0.6630 -0.3029  0.6560
 5649SOL    HW118397   0.090   1.130   1.682  1.6011  1.4967  1.9801
 5649SOL    HW218398  -0.027   1.100   1.773 -1.7082 -1.7018 -2.8435
 5650SOL     OW18399   4.999   5.338   6.741 -0.2908  0.2985 -0.2282
 5650SOL    HW118400   4.954   5.388   6.673 -1.1233  0.6349  0.5647
 5650SOL    HW218401   4.957   5.363   6.822  0.8335  0.0467  0.4578
 5651SOL     OW18402   1.141   1.723   0.624  0.2976 -0.1580  0.1973
 5651SOL    HW118403   1.056   1.725   0.580  0.3405  2.9590 -0.0105
 5651SOL    HW218404   1.204   1.703   0.555 -0.1290 -1.3220  0.1240
 5652SOL     OW18405   4.473   0.648   0.290 -0.2302  0.0740  0.4363
 5652SOL    HW118406   4.473   0.554   0.273 -0.2246  0.3035 -0.9056
 5652SOL    HW218407   4.544   0.660   0.353  2.2080 -0.4053 -2.0393
 5653SOL     OW18408   5.734   7.023   3.954 -0.3113 -0.0868 -0.4495
 5653SOL    HW118409   5.757   7.059   4.040  0.6011  1.5310 -1.3057
 5653SOL    HW218410   5.639   7.026   3.950 -0.5191 -2.2745  1.3147
 5654SOL     OW18411   6.943   1.301   2.851 -0.0183 -0.1785 -0.1073
 5654SOL    HW118412   6.961   1.245   2.927  0.3556 -0.5188 -0.4406
 5654SOL    HW218413   6.942   1.241   2.777  1.0026  0.3353 -0.5545
 5655SOL     OW18414   3.925   1.080   7.114 -0.1521 -0.3119 -0.0461
 5655SOL    HW118415   3.953   0.996   7.150  0.2129 -0.1139  0.1426
 5655SOL    HW218416   4.006   1.131   7.108 -0.5134  0.3927  0.8041
 5656SOL     OW18417   1.557   1.860   2.075  0.0702  0.7777  0.4741
 5656SOL    HW118418   1.467   1.889   2.063 -0.0345  0.4399  0.4251
 5656SOL    HW218419   1.576   1.878   2.168 -0.1545  0.5555  0.5641
 5657SOL     OW18420   3.715   2.295   3.301  0.1144  0.2116 -0.0101
 5657SOL    HW118421   3.693   2.211   3.261  1.7490  0.4290 -1.4885
 5657SOL    HW218422   3.766   2.341   3.234  0.2292  1.9303  1.1817
 5658SOL     OW18423   3.881   5.973   2.457  0.0125  0.0602  0.3431
 5658SOL    HW118424   3.916   5.968   2.546 -1.0501  1.9327  0.9297
 5658SOL    HW218425   3.807   6.034   2.464 -1.4039 -1.3538 -1.4284
 5659SOL     OW18426   4.447   0.800   2.655 -0.6214  0.1001 -0.4380
 5659SOL    HW118427   4.402   0.717   2.639 -2.8124  1.1110  0.1044
 5659SOL    HW218428   4.517   0.777   2.716 -2.1751 -1.1462  0.9954
 5660SOL     OW18429   3.463   2.077   3.473  0.0573  0.1474  0.3051
 5660SOL    HW118430   3.475   2.171   3.459  2.9804 -0.2357 -0.4652
 5660SOL    HW218431   3.547   2.048   3.509  0.2645 -2.6108 -2.0671
 5661SOL     OW18432   6.250   5.126   4.203 -0.1717  0.0018 -0.2068
 5661SOL    HW118433   6.310   5.067   4.157 -1.5264 -2.8957  1.4527
 5661SOL    HW218434   6.305   5.171   4.267  0.7966  0.0093 -1.0186
 5662SOL     OW18435   4.157   0.957   3.413 -0.6032  0.1531 -0.6388
 5662SOL    HW118436   4.112   0.966   3.497 -0.0092 -0.2123 -0.2743
 5662SOL    HW218437   4.154   0.863   3.394  0.7125 -0.0023 -0.1958
 5663SOL     OW18438   0.442   3.525   3.889 -0.1494  0.5086  0.7508
 5663SOL    HW118439   0.433   3.545   3.796 -1.6935 -2.1715  0.2440
 5663SOL    HW218440   0.503   3.451   3.892  0.0491  0.6938  1.9096
 5664SOL     OW18441   4.142   0.288   5.421  0.2259 -0.4735  0.7193
 5664SOL    HW118442   4.129   0.295   5.326  2.1354 -0.4644  0.4019
 5664SOL    HW218443   4.202   0.360   5.442  0.3709 -0.8960  1.8021
 5665SOL     OW18444   2.787   2.311   6.298 -0.3903  0.3284  0.3533
 5665SOL    HW118445   2.830   2.263   6.368 -0.4148  0.1327  0.2324
 5665SOL    HW218446   2.697   2.321   6.328 -0.8701 -1.3150 -0.4405
 5666SOL     OW18447   3.572   3.727   4.754  0.0333  0.7609  0.1325
 5666SOL    HW118448   3.643   3.675   4.791  0.4214  1.9517  1.1129
 5666SOL    HW218449   3.497   3.711   4.813 -0.0086  0.8838  0.1120
 5667SOL     OW18450   3.364   6.277   6.700 -0.5210  0.0380  0.2482
 5667SOL    HW118451   3.419   6.210   6.659  0.6114  1.6743 -1.0263
 5667SOL    HW218452   3.407   6.295   6.784 -0.0406  0.1409 -0.0152
 5668SOL     OW18453   0.224   2.718   4.261 -0.2481 -0.2678  0.1164
 5668SOL    HW118454   0.238   2.804   4.221 -0.8815 -0.7842 -1.2754
 5668SOL    HW218455   0.220   2.657   4.187  0.6877 -1.5831  1.1033
 5669SOL     OW18456   4.242   2.068   1.143 -0.2147 -0.6447 -0.4910
 5669SOL    HW118457   4.240   2.109   1.229 -0.9655  1.0060 -1.2611
 5669SOL    HW218458   4.154   2.079   1.108  0.7452  1.2546 -2.5711
 5670SOL     OW18459   1.503   7.109   3.368  0.1043 -0.1265  0.1266
 5670SOL    HW118460   1.478   7.110   3.276 -0.2075 -1.1308  0.1980
 5670SOL    HW218461   1.544   7.024   3.382 -0.8684 -0.4417  1.1849
 5671SOL     OW18462   3.352   3.647   2.840  0.5422  0.3206  0.3042
 5671SOL    HW118463   3.336   3.735   2.874  0.2494  0.0085  0.9883
 5671SOL    HW218464   3.364   3.593   2.918  1.7341 -0.0638 -0.1274
 5672SOL     OW18465   3.555   6.817   4.163  0.5931  0.3025 -0.1071
 5672SOL    HW118466   3.626   6.753   4.161 -0.5798 -1.0334 -0.0098
 5672SOL    HW218467   3.575   6.873   4.238  2.9215  1.6325 -1.5709
 5673SOL     OW18468   2.562   6.252   0.372 -0.3095  0.2326 -0.7387
 5673SOL    HW118469   2.556   6.159   0.396  0.1263 -0.3852 -2.8268
 5673SOL    HW218470   2.645   6.260   0.326 -0.4196  1.6432 -0.7388
 5674SOL     OW18471   3.092   4.278   4.634 -0.3471  0.2366  0.5891
 5674SOL    HW118472   3.185   4.297   4.623 -0.6495  2.1143  0.8710
 5674SOL    HW218473   3.070   4.313   4.721 -1.4177  0.2832  0.3231
 5675SOL     OW18474   6.929   0.841   4.108 -0.4741  0.3857 -0.2074
 5675SOL    HW118475   6.942   0.836   4.013  0.9818 -0.6591  0.0172
 5675SOL    HW218476   6.896   0.755   4.133 -0.1108  0.3937  0.3246
 5676SOL     OW18477   6.574   4.214   2.614  0.2675 -0.3094  0.3352
 5676SOL    HW118478   6.561   4.135   2.562 -1.8448 -0.3688  0.8639
 5676SOL    HW218479   6.505   4.274   2.585  0.6499  0.6253  1.2641
 5677SOL     OW18480   6.160   6.225   0.184  0.2955 -0.2153 -0.5403
 5677SOL    HW118481   6.227   6.178   0.232  0.2263  0.0463 -0.1838
 5677SOL    HW218482   6.117   6.281   0.249  0.7270  0.7321 -1.0377
 5678SOL     OW18483   1.119   4.409   5.144  0.5994 -0.1374 -0.1670
 5678SOL    HW118484   1.063   4.471   5.097 -0.0594 -1.1617 -0.7681
 5678SOL    HW218485   1.207   4.427   5.113  0.4989  0.8867  0.1082
 5679SOL     OW18486   3.029   5.126   2.898 -0.6403  0.5126 -0.3041
 5679SOL    HW118487   3.105   5.092   2.851  0.6200 -1.1727  2.6521
 5679SOL    HW218488   2.967   5.053   2.899 -0.3813  0.2740  1.0542
 5680SOL     OW18489   4.896   0.548   2.904 -0.0546  0.0370 -0.3011
 5680SOL    HW118490   4.942   0.611   2.849 -1.0822 -0.1314 -1.3921
 5680SOL    HW218491   4.916   0.463   2.865  2.0999 -0.4642  1.7177
 5681SOL     OW18492   3.835   2.201   5.138  0.1164 -0.5641  0.3898
 5681SOL    HW118493   3.902   2.238   5.195  1.2348 -0.0222 -1.2106
 5681SOL    HW218494   3.855   2.236   5.052 -1.5491 -1.3258 -0.3422
 5682SOL     OW18495   4.898   6.166   3.489  0.2502  0.1644  0.1630
 5682SOL    HW118496   4.810   6.195   3.466  0.2663 -0.3459 -0.5888
 5682SOL    HW218497   4.917   6.095   3.427  1.5772  0.9463 -0.3932
 5683SOL     OW18498   4.161   4.276   0.186 -0.5961 -0.0488  0.0856
 5683SOL    HW118499   4.239   4.287   0.242 -1.1128  0.2690  0.7546
 5683SOL    HW218500   4.089   4.312   0.238 -1.2376 -0.5788 -0.4203
 5684SOL     OW18501   0.304   2.945   1.807  0.2258  0.1930  0.4700
 5684SOL    HW118502   0.394   2.975   1.796 -0.2480  1.2563 -0.7678
 5684SOL    HW218503   0.272   2.993   1.884  0.8591 -0.6131  1.2628
 5685SOL     OW18504   6.466   6.090   2.090  0.5889 -0.6921  0.5053
 5685SOL    HW118505   6.559   6.114   2.083  0.0394  1.3314 -1.2068
 5685SOL    HW218506   6.425   6.166   2.131 -0.4091 -1.3111  0.6882
 5686SOL     OW18507   5.891   5.657   3.402 -0.1114 -0.0012 -1.0839
 5686SOL    HW118508   5.853   5.612   3.478 -0.6019 -1.1703 -2.0045
 5686SOL    HW218509   5.945   5.591   3.359  0.8055  0.8804 -1.3219
 5687SOL     OW18510   5.979   2.327   2.103  0.5780  0.1581  0.8904
 5687SOL    HW118511   5.993   2.234   2.119 -1.9136 -0.3937  0.3464
 5687SOL    HW218512   6.019   2.343   2.017 -0.5492 -0.8995  0.1283
 5688SOL     OW18513   4.304   4.322   4.556 -1.0358  0.1208 -0.1482
 5688SOL    HW118514   4.370   4.269   4.511  0.0506 -0.7941  2.2749
 5688SOL    HW218515   4.222   4.274   4.545 -0.8123 -0.0524 -1.1201
 5689SOL     OW18516   0.101   5.160   5.841 -0.3999 -0.2415 -0.7107
 5689SOL    HW118517   0.140   5.073   5.834 -0.1256 -0.2050  0.2352
 5689SOL    HW218518   0.011   5.149   5.810  0.0091 -0.5713 -1.8371
 5690SOL     OW18519   7.045   4.455   2.370 -0.6288 -0.1173  0.4466
 5690SOL    HW118520   7.071   4.483   2.283 -0.0390  0.4629  0.8000
 5690SOL    HW218521   6.958   4.417   2.358 -0.4132 -0.3435 -0.4388
 5691SOL     OW18522   2.829   2.932   0.732 -0.3801 -0.6322 -0.0292
 5691SOL    HW118523   2.756   2.870   0.742 -0.3234 -0.8376 -0.8009
 5691SOL    HW218524   2.869   2.908   0.649  0.5350 -0.4756  0.3544
 5692SOL     OW18525   4.472   0.414   2.550 -0.7509 -0.1152 -0.4138
 5692SOL    HW118526   4.459   0.427   2.644  2.0028  0.3488  0.0141
 5692SOL    HW218527   4.423   0.335   2.529 -1.6954 -0.0411  1.3278
 5693SOL     OW18528   0.452   2.786   0.919  0.2287 -0.5491 -0.5093
 5693SOL    HW118529   0.494   2.721   0.862  1.6077 -0.9720  0.9196
 5693SOL    HW218530   0.481   2.870   0.884 -0.1744 -0.7413 -1.3308
 5694SOL     OW18531   5.515   5.858   0.760  0.2631  0.3207  0.0443
 5694SOL    HW118532   5.508   5.763   0.755  0.2318  0.1243  2.5990
 5694SOL    HW218533   5.590   5.879   0.704  1.3010 -1.4084  0.6885
 5695SOL     OW18534   0.627   1.110   4.788  0.5178  0.3896  0.3057
 5695SOL    HW118535   0.698   1.103   4.851  1.6053  4.2040 -0.2128
 5695SOL    HW218536   0.670   1.124   4.704 -0.9188 -1.6568 -0.8613
 5696SOL     OW18537   0.262   1.085   0.057  0.7224  0.0716 -0.1732
 5696SOL    HW118538   0.171   1.085   0.029  0.6271  0.8665  0.1087
 5696SOL    HW218539   0.303   1.017   0.004  0.5769  1.5818 -2.3508
 5697SOL     OW18540   0.400   7.127   1.197  0.2811 -0.1091 -0.6016
 5697SOL    HW118541   0.495   7.128   1.184  0.6246  1.4613  1.5112
 5697SOL    HW218542   0.371   7.214   1.170 -0.7254 -0.8452 -2.0180
 5698SOL     OW18543   3.052   0.021   2.713 -0.1898 -0.0373  1.0370
 5698SOL    HW118544   3.029  -0.067   2.686 -1.6694  0.4515  0.5743
 5698SOL    HW218545   2.975   0.074   2.690  0.5047  1.2978  1.6482
 5699SOL     OW18546   0.329   2.683   4.504 -0.2918  0.1972  0.2826
 5699SOL    HW118547   0.422   2.696   4.485 -0.1197 -1.4592 -0.1968
 5699SOL    HW218548   0.285   2.696   4.420 -0.6995  2.3161  0.7655
 5700SOL     OW18549   2.671   6.768   5.641  0.1652  0.4498 -0.2590
 5700SOL    HW118550   2.709   6.855   5.656  2.4485 -0.3577 -0.8422
 5700SOL    HW218551   2.661   6.762   5.546 -0.1418  0.1395 -0.2097
 5701SOL     OW18552   1.517   6.384   6.474 -0.4989  0.7392 -0.2002
 5701SOL    HW118553   1.449   6.449   6.460  0.6897  1.8120 -1.2839
 5701SOL    HW218554   1.483   6.304   6.433 -0.9489  1.3655 -1.0831
 5702SOL     OW18555   4.932   4.464   0.409  0.1710 -0.2989  0.1579
 5702SOL    HW118556   4.926   4.546   0.457  0.2764 -0.8787  1.2094
 5702SOL    HW218557   4.843   4.444   0.382  0.1991  0.3311 -0.3977
 5703SOL     OW18558   0.216   1.230   2.549  0.2745 -0.1298  0.3512
 5703SOL    HW118559   0.189   1.294   2.483  1.9282  0.9742  0.6822
 5703SOL    HW218560   0.269   1.280   2.611  1.5526 -1.7848  0.6782
 5704SOL     OW18561   3.237   3.263   4.562  0.1209 -0.1537  0.3137
 5704SOL    HW118562   3.243   3.345   4.610  0.7422  0.1916 -0.3389
 5704SOL    HW218563   3.147   3.233   4.576 -0.1028  0.6262  0.5762
 5705SOL     OW18564   3.012   1.609   1.884 -0.3969 -0.2372 -0.4718
 5705SOL    HW118565   3.010   1.664   1.806 -0.6962 -0.2402 -0.4683
 5705SOL    HW218566   3.014   1.520   1.850  1.5375 -0.2282 -0.4997
 5706SOL     OW18567   5.895   3.711   2.233 -0.3024  0.0787  0.0264
 5706SOL    HW118568   5.855   3.753   2.157 -0.2066 -0.4612 -0.3302
 5706SOL    HW218569   5.877   3.618   2.221 -0.8690  0.0475  1.0116
 5707SOL     OW18570   5.007   4.214   0.713  0.4547 -0.0132  0.1261
 5707SOL    HW118571   4.995   4.204   0.619 -3.2907  0.1390  0.4168
 5707SOL    HW218572   5.014   4.309   0.727 -0.9186  0.1216  0.0722
 5708SOL     OW18573   1.881   4.376   5.427  0.6284 -0.6176  0.3256
 5708SOL    HW118574   1.801   4.330   5.453 -0.2806  0.5805 -0.2427
 5708SOL    HW218575   1.850   4.451   5.376  2.1087  0.0211  0.3082
 5709SOL     OW18576   6.041   7.096   6.671 -0.0998 -0.1790  0.4788
 5709SOL    HW118577   6.042   7.073   6.578 -3.5777 -1.1825  0.5513
 5709SOL    HW218578   6.089   7.026   6.714  1.3341  0.1652 -0.4801
 5710SOL     OW18579   1.728   5.541   5.406  0.2051 -0.3008 -0.1597
 5710SOL    HW118580   1.823   5.543   5.400  0.1167  0.4623 -1.9031
 5710SOL    HW218581   1.702   5.632   5.415 -0.3436 -0.5829  1.4759
 5711SOL     OW18582   6.625   7.034   1.600  0.3814  0.4799 -0.0971
 5711SOL    HW118583   6.582   7.045   1.685  1.6448  1.9039  0.4083
 5711SOL    HW218584   6.711   6.997   1.622  0.0363 -0.8942 -0.9480
 5712SOL     OW18585   4.623   5.725   1.981 -0.1239  0.0577  0.1368
 5712SOL    HW118586   4.557   5.692   1.920  0.0501  0.9045 -0.5216
 5712SOL    HW218587   4.704   5.681   1.955 -0.0332  0.4788 -0.2948
 5713SOL     OW18588   3.612   4.327   4.447  0.1415  0.1431 -0.1167
 5713SOL    HW118589   3.605   4.316   4.542 -0.0447 -0.7734 -0.2230
 5713SOL    HW218590   3.522   4.333   4.417  0.1570 -0.6976 -0.3489
 5714SOL     OW18591   3.032   2.540   5.243 -0.5777  0.3743 -0.5076
 5714SOL    HW118592   3.063   2.603   5.178 -0.7051  0.0129 -0.9219
 5714SOL    HW218593   2.962   2.587   5.289 -0.0507  0.8620 -0.1885
 5715SOL     OW18594   6.341   4.989   0.367 -0.1724  0.4817 -0.3668
 5715SOL    HW118595   6.357   4.927   0.439  1.2861  2.5136  1.1837
 5715SOL    HW218596   6.247   4.983   0.351 -0.2070 -1.5386  0.2406
 5716SOL     OW18597   0.271   0.072   2.069  0.5076  0.3540 -0.3381
 5716SOL    HW118598   0.331   0.118   2.010  1.5892 -1.7739 -1.0157
 5716SOL    HW218599   0.263  -0.016   2.031 -2.3380  0.2508  0.2690
 5717SOL     OW18600   6.923   6.745   4.751  0.1685 -0.1985 -0.3186
 5717SOL    HW118601   6.938   6.745   4.656  0.4114 -2.2923 -0.3310
 5717SOL    HW218602   6.900   6.654   4.771 -0.6863  0.3897  1.5211
 5718SOL     OW18603   4.830   6.747   0.331  0.0881  0.1390 -0.1544
 5718SOL    HW118604   4.772   6.819   0.356  0.8886  0.6557  0.2794
 5718SOL    HW218605   4.865   6.774   0.245  0.8894  0.6065  0.2998
 5719SOL     OW18606   5.996   2.212   6.891  0.3193  0.6176 -0.8029
 5719SOL    HW118607   5.923   2.210   6.954  0.5541  2.1510 -0.4536
 5719SOL    HW218608   5.970   2.277   6.826  1.1355  0.7756 -0.9817
 5720SOL     OW18609   2.551   2.378   2.183  0.7297 -0.4267 -0.0282
 5720SOL    HW118610   2.604   2.314   2.232  0.5964 -0.4506  0.0863
 5720SOL    HW218611   2.598   2.461   2.193 -0.2645 -0.0174  1.7535
 5721SOL     OW18612   1.543   3.319   0.974 -0.0319 -0.5084  0.2432
 5721SOL    HW118613   1.575   3.242   0.927 -0.5201 -0.0953 -0.8091
 5721SOL    HW218614   1.494   3.283   1.048 -0.3239 -1.2241 -0.2806
 5722SOL     OW18615   3.365   2.097   2.957  0.0130  0.0519 -0.2959
 5722SOL    HW118616   3.282   2.062   2.926 -0.3402  0.4615  0.1862
 5722SOL    HW218617   3.416   2.110   2.877 -1.0635  1.5387 -0.7767
 5723SOL     OW18618   3.948   0.471   6.984 -0.1665  0.0188 -0.5967
 5723SOL    HW118619   4.030   0.432   6.954  0.2851  0.8115 -0.4144
 5723SOL    HW218620   3.972   0.520   7.062 -0.9068 -0.1194 -0.2659
 5724SOL     OW18621   3.486   4.113   4.166  0.1502 -0.2667 -0.1871
 5724SOL    HW118622   3.499   4.182   4.100 -0.0861  1.0100  1.0369
 5724SOL    HW218623   3.516   4.033   4.124 -0.4595  0.4207 -2.0094
 5725SOL     OW18624   3.185   2.402   0.626  0.4533 -0.2625  0.3382
 5725SOL    HW118625   3.215   2.405   0.535  0.6579  0.8189  0.4270
 5725SOL    HW218626   3.118   2.471   0.631  2.2417  1.4748  1.6261
 5726SOL     OW18627   0.274   3.691   0.095  0.2351 -0.1140  0.3294
 5726SOL    HW118628   0.317   3.606   0.085 -0.8839 -0.6945  0.3282
 5726SOL    HW218629   0.260   3.722   0.006 -1.6742 -1.1448  0.2269
 5727SOL     OW18630   5.830   2.965   2.381  0.2430 -0.1745  0.0193
 5727SOL    HW118631   5.807   2.914   2.459 -1.5663  0.4222 -0.0697
 5727SOL    HW218632   5.833   3.056   2.412  2.2535 -0.1603 -0.0760
 5728SOL     OW18633   2.195   3.012   5.243  0.0480 -0.0545  0.2224
 5728SOL    HW118634   2.151   2.954   5.306  1.6979 -1.8649 -0.1897
 5728SOL    HW218635   2.274   3.039   5.288 -0.6944  1.9722  0.4022
 5729SOL     OW18636   3.248   5.692   0.456  0.2033  0.6563 -0.4778
 5729SOL    HW118637   3.212   5.735   0.533 -0.5445 -0.4892 -0.1629
 5729SOL    HW218638   3.212   5.741   0.382 -1.1777  0.1923 -0.1437
 5730SOL     OW18639   6.335   1.332   3.171  0.5654  0.1763 -0.2591
 5730SOL    HW118640   6.357   1.417   3.132 -0.1507  0.0310 -0.9782
 5730SOL    HW218641   6.312   1.276   3.098  1.1643 -0.6974  0.2015
 5731SOL     OW18642   2.221   4.188   6.103  0.0925 -0.2237 -0.4007
 5731SOL    HW118643   2.221   4.148   6.016  0.2849 -2.4061  0.5170
 5731SOL    HW218644   2.314   4.197   6.125  0.1698  3.3121 -1.5865
 5732SOL     OW18645   4.347   0.085   0.422  0.2053  0.1577  0.6388
 5732SOL    HW118646   4.431   0.104   0.381  0.4840 -1.5290  0.3261
 5732SOL    HW218647   4.371   0.036   0.502 -0.4529  0.0573  0.7776
 5733SOL     OW18648   6.515   4.091   1.529  0.3830 -0.1226 -0.0630
 5733SOL    HW118649   6.564   4.049   1.459 -0.1572  1.3041 -1.3700
 5733SOL    HW218650   6.426   4.098   1.494 -0.2615 -0.6815  1.3732
 5734SOL     OW18651   3.075   2.680   5.017 -0.0448  0.1768  0.1152
 5734SOL    HW118652   3.162   2.662   4.981  0.0525  0.1541  0.3600
 5734SOL    HW218653   3.058   2.772   4.995 -0.0732  0.1016 -0.1696
 5735SOL     OW18654   2.884   1.998   6.379 -0.4726  0.1290  0.2715
 5735SOL    HW118655   2.899   1.906   6.401 -2.0901  0.0040  0.9660
 5735SOL    HW218656   2.796   2.017   6.411  0.7330  2.6456  2.5554
 5736SOL     OW18657   0.752   2.694   0.404 -0.2644 -0.1941  0.7300
 5736SOL    HW118658   0.677   2.709   0.461 -1.2161 -0.9469 -0.2938
 5736SOL    HW218659   0.828   2.716   0.458 -1.1747 -0.1525  2.0264
 5737SOL     OW18660   4.900   5.978   0.014 -0.7598 -0.0884  0.1424
 5737SOL    HW118661   4.909   6.060   0.063  2.0317 -1.1878  1.6329
 5737SOL    HW218662   4.823   5.936   0.053 -1.3392  1.1231  0.3712
 5738SOL     OW18663   4.807   2.937   3.344  0.1690  0.4099 -0.1088
 5738SOL    HW118664   4.713   2.925   3.329 -0.1992  1.4471  1.1757
 5738SOL    HW218665   4.814   3.021   3.389  1.8997  1.3274 -1.9083
 5739SOL     OW18666   6.280   6.699   6.935  0.7441 -0.1205 -0.2037
 5739SOL    HW118667   6.299   6.659   7.020  1.7946 -0.2950 -0.5000
 5739SOL    HW218668   6.363   6.693   6.887  0.6165  1.3657 -0.6791
 5740SOL     OW18669   5.286   2.566   1.750 -0.1260 -0.3879  0.0161
 5740SOL    HW118670   5.377   2.565   1.779 -0.0388  0.6824 -0.1603
 5740SOL    HW218671   5.291   2.563   1.654 -0.3178 -1.2589  0.0248
 5741SOL     OW18672   4.795   7.049   5.599  0.3368  0.1464  0.0203
 5741SOL    HW118673   4.707   7.026   5.568 -0.9461  2.4532  1.6841
 5741SOL    HW218674   4.853   7.013   5.532 -1.7510 -2.4039 -0.6250
 5742SOL     OW18675   4.799   4.538   5.399 -0.5080  0.0856 -0.6402
 5742SOL    HW118676   4.863   4.514   5.332  0.8655  0.6484  0.4040
 5742SOL    HW218677   4.844   4.604   5.451 -1.1437 -1.0345  1.4300
 5743SOL     OW18678   2.525   4.156   6.728 -0.2617 -0.0634  0.3565
 5743SOL    HW118679   2.562   4.182   6.643  1.3893  0.5527  1.2178
 5743SOL    HW218680   2.589   4.186   6.792 -0.0360 -3.0259  1.6927
 5744SOL     OW18681   5.199   4.961   4.653 -0.8352 -0.0255 -0.3330
 5744SOL    HW118682   5.212   4.872   4.686  1.7962  0.4589  0.2254
 5744SOL    HW218683   5.151   4.950   4.571  0.3760 -2.0933 -0.8489
 5745SOL     OW18684   3.294   5.561   2.447  0.2569  0.3412  0.1043
 5745SOL    HW118685   3.277   5.639   2.500  0.9555 -0.4885  1.6054
 5745SOL    HW218686   3.366   5.517   2.492  0.5994 -0.6244 -1.3280
 5746SOL     OW18687   2.073   1.923   1.108 -0.4336  0.1884 -0.1811
 5746SOL    HW118688   2.080   1.834   1.071  2.1780 -0.0130  0.5579
 5746SOL    HW218689   2.120   1.978   1.046 -1.3978  0.9460 -0.2523
 5747SOL     OW18690   6.219   3.836   6.432  0.7411 -0.5724 -0.0152
 5747SOL    HW118691   6.126   3.854   6.422  0.8335  1.6185  2.1909
 5747SOL    HW218692   6.261   3.881   6.359  0.2806  1.1636  0.7561
 5748SOL     OW18693   2.290   0.997   5.803  0.0112 -0.0049 -0.2148
 5748SOL    HW118694   2.374   1.040   5.820  0.0120 -0.4225  0.9235
 5748SOL    HW218695   2.278   1.005   5.709  0.7390  1.1429 -0.2332
 5749SOL     OW18696   5.457   7.132   2.899  0.6745 -0.2094 -0.1121
 5749SOL    HW118697   5.459   7.038   2.917  1.1564 -0.4256 -1.2202
 5749SOL    HW218698   5.535   7.166   2.943  1.2324 -0.5521 -0.8103
 5750SOL     OW18699   4.959   4.185   1.566 -0.8554 -0.1231  0.0395
 5750SOL    HW118700   4.880   4.208   1.616  0.2446 -0.0852  1.8820
 5750SOL    HW218701   5.029   4.238   1.607  0.1185 -0.1109 -1.5688
 5751SOL     OW18702   5.632   5.919   6.925 -0.7053  0.1542 -0.2218
 5751SOL    HW118703   5.619   5.997   6.981 -3.2571 -1.5828  1.8621
 5751SOL    HW218704   5.727   5.907   6.923 -0.0283  4.1262 -1.9639
 5752SOL     OW18705   5.374   5.994   0.987 -0.7358 -0.0813 -0.4830
 5752SOL    HW118706   5.465   5.989   0.957 -0.7446  1.5826 -0.8534
 5752SOL    HW218707   5.377   6.051   1.063 -1.6668  1.4119 -1.5081
 5753SOL     OW18708   2.502   4.792   0.364 -0.0119  0.4993 -0.0009
 5753SOL    HW118709   2.564   4.724   0.391  1.4665  2.1589  1.0395
 5753SOL    HW218710   2.516   4.801   0.269  2.2891  1.6235  0.3707
 5754SOL     OW18711   6.120   0.425   1.347 -0.4597 -0.2611  0.1954
 5754SOL    HW118712   6.103   0.331   1.339 -1.3983 -0.0828 -0.0333
 5754SOL    HW218713   6.214   0.431   1.362 -0.1106 -1.1534 -1.4115
 5755SOL     OW18714   5.841   3.798   0.107  0.7465  0.3038  0.2682
 5755SOL    HW118715   5.761   3.850   0.112 -0.3437 -1.2919 -0.1285
 5755SOL    HW218716   5.873   3.796   0.198 -1.2155 -1.3694  0.9840
 5756SOL     OW18717   4.693   1.925   6.497  0.1651 -0.4300  0.4957
 5756SOL    HW118718   4.644   1.918   6.579 -1.9915 -0.5615 -0.7249
 5756SOL    HW218719   4.711   2.019   6.489 -0.1975 -0.3271  0.8183
 5757SOL     OW18720   4.896   1.814   6.906  0.1077  0.2497 -0.3892
 5757SOL    HW118721   4.806   1.783   6.912 -0.4939  1.9959  0.3053
 5757SOL    HW218722   4.924   1.826   6.997  1.2769 -0.8535 -0.5739
 5758SOL     OW18723   4.591   2.483   4.092  0.2608 -0.3074 -0.4980
 5758SOL    HW118724   4.602   2.530   4.175  0.8153 -2.0262  0.4492
 5758SOL    HW218725   4.672   2.501   4.044  0.0920  0.4098 -0.5212
 5759SOL     OW18726   1.898   6.250   0.270 -0.1007 -0.4317 -0.1512
 5759SOL    HW118727   1.828   6.198   0.309  0.1228 -1.0470 -0.5636
 5759SOL    HW218728   1.861   6.338   0.264 -0.4575 -0.5237  0.6059
 5760SOL     OW18729   0.800   3.385   3.358 -0.2885 -0.9649  0.4891
 5760SOL    HW118730   0.811   3.479   3.376  0.0101 -0.9143  0.0557
 5760SOL    HW218731   0.885   3.358   3.323 -0.6324 -1.2215 -0.1505
 5761SOL     OW18732   3.922   0.662   3.679  0.3563  0.4019  0.7740
 5761SOL    HW118733   3.933   0.567   3.666  0.3549  0.1012  2.6627
 5761SOL    HW218734   3.972   0.702   3.608 -0.0947 -1.0126 -0.3808
 5762SOL     OW18735   7.122   4.098   3.816 -0.0243  0.0677 -0.6587
 5762SOL    HW118736   7.040   4.055   3.791 -0.2595  0.9854 -1.4912
 5762SOL    HW218737   7.100   4.144   3.898 -0.1972 -0.1037 -0.6067
 5763SOL     OW18738   0.821   5.559   3.232  0.4955 -0.4033  0.4611
 5763SOL    HW118739   0.790   5.649   3.216  0.3204 -0.5181  0.1543
 5763SOL    HW218740   0.748   5.503   3.206  0.8737 -0.6654 -0.0593
 5764SOL     OW18741   3.578   4.602   1.208 -0.4878  0.6648 -0.5469
 5764SOL    HW118742   3.489   4.572   1.187  0.5663 -3.7029  0.2017
 5764SOL    HW218743   3.578   4.611   1.304  0.1780 -0.8647 -0.3734
 5765SOL     OW18744   1.754   0.490   1.951  0.3666 -0.4979  0.0435
 5765SOL    HW118745   1.691   0.477   1.881 -0.4493  1.8095  0.2754
 5765SOL    HW218746   1.709   0.458   2.030  0.1209 -0.3752 -0.0451
 5766SOL     OW18747   4.594   2.377   4.398 -0.6208 -0.3001  0.4057
 5766SOL    HW118748   4.679   2.367   4.357 -1.2252  2.7265 -1.9937
 5766SOL    HW218749   4.544   2.300   4.371  0.8228 -1.2992  0.5104
 5767SOL     OW18750   2.368   2.261   0.722  0.0130 -0.1517 -0.3633
 5767SOL    HW118751   2.322   2.198   0.778  0.9616 -0.0281  0.5789
 5767SOL    HW218752   2.411   2.208   0.655 -0.5573 -0.3588 -0.5708
 5768SOL     OW18753   3.045   6.787   1.716  0.2082  0.0133 -0.0462
 5768SOL    HW118754   2.954   6.781   1.686  0.2200 -1.4075  0.1310
 5768SOL    HW218755   3.039   6.787   1.811  0.4338 -2.4975  0.0513
 5769SOL     OW18756   1.926   5.221   6.607  0.4250 -0.7079  0.6939
 5769SOL    HW118757   1.924   5.296   6.666  0.2688  0.7326 -1.0241
 5769SOL    HW218758   2.019   5.201   6.595  0.4706 -0.7329  1.0902
 5770SOL     OW18759   6.147   6.341   0.438  0.2440 -0.1623 -0.1570
 5770SOL    HW118760   6.123   6.287   0.514 -0.5479  0.0678 -0.2413
 5770SOL    HW218761   6.232   6.378   0.462 -0.3189  0.4872  0.9355
 5771SOL     OW18762   1.531   3.601   5.549  0.4041 -0.0374 -0.6665
 5771SOL    HW118763   1.619   3.574   5.521  0.6588  0.9003 -0.8221
 5771SOL    HW218764   1.484   3.616   5.467  0.4265  0.4440 -0.5979
 5772SOL     OW18765   2.723   1.000   3.310 -0.0457 -0.0193 -0.6041
 5772SOL    HW118766   2.640   1.036   3.280 -0.2073 -0.6876 -0.9576
 5772SOL    HW218767   2.706   0.907   3.325  1.5934 -1.1957 -4.6550
 5773SOL     OW18768   2.286   2.510   1.529  0.1357 -0.1832 -0.6450
 5773SOL    HW118769   2.324   2.432   1.569  0.5621 -1.1391 -2.7862
 5773SOL    HW218770   2.208   2.529   1.582  1.0438 -0.9357  1.0215
 5774SOL     OW18771   2.635   1.416   5.010 -0.1204  0.1739 -0.6655
 5774SOL    HW118772   2.723   1.398   4.977  0.8706  1.4203  1.0960
 5774SOL    HW218773   2.597   1.476   4.945  0.9799  0.9412 -0.6217
 5775SOL     OW18774   5.415   3.563   3.743  0.4089 -0.2705  0.2564
 5775SOL    HW118775   5.380   3.649   3.763  0.8724 -0.1777  0.7066
 5775SOL    HW218776   5.364   3.503   3.797 -0.2871 -0.3424 -0.4765
 5776SOL     OW18777   1.418   3.111   4.013 -0.8575 -0.8364 -0.1322
 5776SOL    HW118778   1.424   3.107   4.108  0.7730  0.8667 -0.1066
 5776SOL    HW218779   1.440   3.023   3.983 -1.7127 -1.4668  1.0586
 5777SOL     OW18780   6.829   1.447   4.033  0.1132 -0.1139  0.1582
 5777SOL    HW118781   6.849   1.449   4.126  0.4992 -1.1720  0.1108
 5777SOL    HW218782   6.915   1.438   3.990 -0.1394 -0.7707 -0.2338
 5778SOL     OW18783   2.595   0.786   5.895  1.1597  0.4199  0.0815
 5778SOL    HW118784   2.666   0.738   5.937 -0.2165 -1.1884  0.6702
 5778SOL    HW218785   2.521   0.725   5.896 -0.0442  1.7876 -1.1297
 5779SOL     OW18786   0.061   3.941   6.029  0.1957 -0.7057  0.3016
 5779SOL    HW118787   0.042   3.847   6.032 -1.0497 -0.4481  1.2128
 5779SOL    HW218788   0.131   3.954   6.093  2.3898 -1.3931 -1.8036
 5780SOL     OW18789   6.477   6.995   3.916 -0.0214 -0.0209 -0.0897
 5780SOL    HW118790   6.422   7.007   3.838  2.5366  1.0034 -1.8927
 5780SOL    HW218791   6.497   7.084   3.945  0.1774 -0.3840  0.9388
 5781SOL     OW18792   2.540   3.365   6.754 -0.5366 -0.0144  0.2705
 5781SOL    HW118793   2.481   3.412   6.695  2.1752  0.7466 -2.0709
 5781SOL    HW218794   2.578   3.433   6.810  2.5324  0.6636 -2.3565
 5782SOL     OW18795   2.178   1.421   4.834  0.1920 -0.2320  0.1786
 5782SOL    HW118796   2.191   1.509   4.798 -2.0553  0.1469  0.1394
 5782SOL    HW218797   2.188   1.433   4.929  0.7055 -0.1165  0.1144
 5783SOL     OW18798   4.502   4.276   0.408 -0.1426 -0.3973  0.4468
 5783SOL    HW118799   4.525   4.356   0.360 -0.2821 -0.2650  0.5956
 5783SOL    HW218800   4.525   4.296   0.499 -1.3242 -0.0514  0.6956
 5784SOL     OW18801   1.820   1.616   2.620  0.3150 -0.3112  1.0797
 5784SOL    HW118802   1.778   1.702   2.626 -0.2841 -0.5825  0.8432
 5784SOL    HW218803   1.765   1.559   2.673 -0.2389 -0.8999 -0.0812
 5785SOL     OW18804   1.445   0.891   5.642  0.3255  0.0740 -0.2163
 5785SOL    HW118805   1.520   0.903   5.700 -1.6321  0.5063  2.4093
 5785SOL    HW218806   1.441   0.797   5.627 -0.4583 -0.3986  2.4056
 5786SOL     OW18807   0.665   6.065   2.354 -0.2572 -0.0610 -0.1356
 5786SOL    HW118808   0.628   6.050   2.267 -1.4662 -0.6014  0.4522
 5786SOL    HW218809   0.757   6.086   2.338 -0.5396  0.1558 -1.5591
 5787SOL     OW18810   4.011   6.794   5.294  0.1403  0.0557  0.1713
 5787SOL    HW118811   4.002   6.790   5.389 -2.4169 -1.3369 -0.0438
 5787SOL    HW218812   3.987   6.883   5.271  2.2149  0.8551  0.8859
 5788SOL     OW18813   6.644   4.657   1.913 -0.2633 -0.2076  0.3352
 5788SOL    HW118814   6.619   4.648   1.822 -1.1778 -0.1858  0.5749
 5788SOL    HW218815   6.697   4.737   1.916 -1.0152  0.3149 -0.0245
 5789SOL     OW18816   0.717   3.720   5.061 -0.0333 -0.0753  0.2101
 5789SOL    HW118817   0.741   3.765   4.980  0.9065 -0.7039  0.1204
 5789SOL    HW218818   0.795   3.668   5.084 -0.3621 -0.0957  1.3834
 5790SOL     OW18819   1.009   2.376   0.801  0.0574 -1.0928 -0.1512
 5790SOL    HW118820   1.086   2.320   0.800  0.9221  0.0065 -2.1309
 5790SOL    HW218821   1.039   2.457   0.843 -0.2731 -0.9728 -0.1421
 5791SOL     OW18822   3.864   2.920   2.738  0.3413  0.2074  0.0677
 5791SOL    HW118823   3.839   2.930   2.830 -0.4953  1.0335 -0.2335
 5791SOL    HW218824   3.838   2.830   2.715 -1.2444  0.6368  0.1135
 5792SOL     OW18825   1.864   4.817   5.624  0.3353  0.4584  0.2703
 5792SOL    HW118826   1.840   4.907   5.649 -1.8951  0.3397 -1.1284
 5792SOL    HW218827   1.789   4.765   5.653  0.0170 -0.4115 -1.9737
 5793SOL     OW18828   4.310   2.353   2.619  0.0850  0.1288 -0.0501
 5793SOL    HW118829   4.217   2.328   2.613 -0.2438  0.9797  1.1122
 5793SOL    HW218830   4.356   2.282   2.575 -1.1254 -0.2916 -0.7013
 5794SOL     OW18831   3.943   1.120   5.122 -0.2251 -0.1178 -0.0118
 5794SOL    HW118832   4.019   1.092   5.172  0.7185  1.2506 -0.6416
 5794SOL    HW218833   3.938   1.058   5.048  1.8154  1.2338 -1.3721
 5795SOL     OW18834   5.780   3.356   5.793  0.0508  0.2567 -0.0199
 5795SOL    HW118835   5.801   3.449   5.798  2.6927 -0.1538 -1.5122
 5795SOL    HW218836   5.689   3.354   5.763 -0.3203  2.3081  0.7531
 5796SOL     OW18837   3.715   3.842   2.864 -0.4839 -0.0547  0.0082
 5796SOL    HW118838   3.729   3.908   2.931  0.8868 -0.8853  0.5815
 5796SOL    HW218839   3.672   3.770   2.909  0.1319 -0.4808 -0.0727
 5797SOL     OW18840   5.568   4.027   3.568 -0.7452  0.0343  0.1582
 5797SOL    HW118841   5.583   3.937   3.597 -0.6538  0.4081  1.2974
 5797SOL    HW218842   5.627   4.080   3.621 -0.7870  0.7742 -0.5137
 5798SOL     OW18843   1.735   6.561   4.128  0.1337  0.1670  0.1359
 5798SOL    HW118844   1.675   6.486   4.133 -0.1299  0.4216  0.9951
 5798SOL    HW218845   1.770   6.558   4.039 -0.5701 -0.4409 -0.1325
 5799SOL     OW18846   0.859   0.231   6.047  0.0544 -0.4322  0.5304
 5799SOL    HW118847   0.929   0.293   6.029  1.9955 -1.3310  3.9581
 5799SOL    HW218848   0.786   0.285   6.077  0.7920  0.3562  0.9525
 5800SOL     OW18849   5.964   4.217   0.896  0.1247 -0.4879 -0.0875
 5800SOL    HW118850   5.994   4.149   0.836  1.6158  0.1853 -0.1683
 5800SOL    HW218851   6.021   4.206   0.973 -1.0604 -0.6820  0.7830
 5801SOL     OW18852   7.139   4.834   2.645 -0.2287 -0.1064  0.0062
 5801SOL    HW118853   7.068   4.797   2.697  0.3560 -2.3365 -0.6656
 5801SOL    HW218854   7.190   4.885   2.708 -1.4478  0.1168  0.8526
 5802SOL     OW18855   4.184   6.210   7.111  0.2491  0.1376 -0.2654
 5802SOL    HW118856   4.144   6.183   7.193 -0.6350  1.3521 -0.2600
 5802SOL    HW218857   4.153   6.147   7.046  2.0490 -1.6564  0.5297
 5803SOL     OW18858   1.667   5.251   1.444  0.9751 -0.6197  0.2245
 5803SOL    HW118859   1.688   5.213   1.529  0.0314 -0.1344  0.6775
 5803SOL    HW218860   1.629   5.178   1.394  1.3768 -0.8598  0.2567
 5804SOL     OW18861   5.280   5.377   0.139  0.1342  0.3352 -0.0850
 5804SOL    HW118862   5.329   5.410   0.064  0.5061  1.6824  0.6975
 5804SOL    HW218863   5.243   5.294   0.110  0.1015  0.9122 -1.8044
 5805SOL     OW18864   4.245   5.256   0.960  0.2228  0.3612  0.1459
 5805SOL    HW118865   4.325   5.230   1.007  1.0772  0.1928 -1.3582
 5805SOL    HW218866   4.273   5.327   0.903 -0.7434  0.3951 -0.2897
 5806SOL     OW18867   2.843   5.339   5.574  0.3004 -0.2373 -0.3892
 5806SOL    HW118868   2.787   5.400   5.622 -0.6239 -0.2213 -1.4531
 5806SOL    HW218869   2.816   5.349   5.483  0.8572 -1.5010 -0.7036
 5807SOL     OW18870   2.971   2.191   3.870  0.1369  0.4209  0.3289
 5807SOL    HW118871   2.879   2.213   3.882  0.0606  0.4504 -0.2662
 5807SOL    HW218872   3.011   2.207   3.955  0.1107  3.0786 -0.0538
 5808SOL     OW18873   5.078   5.220   4.988 -0.0466  0.1650 -0.0303
 5808SOL    HW118874   5.122   5.231   4.903 -0.5907  0.4429 -0.2784
 5808SOL    HW218875   5.090   5.127   5.009  0.8958  0.2916  0.0393
 5809SOL     OW18876   0.540   6.938   5.977 -0.5964 -0.0135 -0.4650
 5809SOL    HW118877   0.537   6.918   5.884 -0.7102 -1.1635 -0.2307
 5809SOL    HW218878   0.624   6.983   5.989  0.6206 -2.0717 -0.7435
 5810SOL     OW18879   2.642   1.341   4.490 -0.2095  0.1393  0.3357
 5810SOL    HW118880   2.607   1.369   4.405  0.6348 -1.5746 -0.6297
 5810SOL    HW218881   2.567   1.348   4.550 -1.4476 -0.7087 -1.0439
 5811SOL     OW18882   1.586   1.503   4.076  0.0571  0.5035 -0.5058
 5811SOL    HW118883   1.499   1.488   4.038  0.2645  1.5548 -1.4443
 5811SOL    HW218884   1.642   1.524   4.002  1.5284 -1.6951 -0.1168
 5812SOL     OW18885   0.494   1.676   6.551  0.2617  0.2326  0.1188
 5812SOL    HW118886   0.544   1.612   6.601 -0.3016  0.1331  0.5716
 5812SOL    HW218887   0.531   1.761   6.575  1.4274  0.0514 -0.9608
 5813SOL     OW18888   0.764   4.976   6.702  0.6268  0.5189  0.4175
 5813SOL    HW118889   0.757   4.901   6.760 -0.2386 -0.1277 -0.4960
 5813SOL    HW218890   0.858   4.991   6.692  0.7848  0.3610  1.6026
 5814SOL     OW18891   7.024   2.346   3.511 -0.0566 -0.2469 -0.3647
 5814SOL    HW118892   7.051   2.366   3.422  0.1948  0.8886 -0.0418
 5814SOL    HW218893   6.965   2.271   3.501  0.1954 -0.3200 -1.4518
 5815SOL     OW18894   1.315   3.889   4.990 -0.3257 -0.7627  0.6503
 5815SOL    HW118895   1.366   3.813   5.019  0.3251  0.4065  2.8671
 5815SOL    HW218896   1.259   3.910   5.065 -1.6243  0.0065 -0.5020
 5816SOL     OW18897   3.192   5.872   4.385 -0.1805  0.7647 -0.2511
 5816SOL    HW118898   3.286   5.876   4.401 -0.1281 -0.8985  0.0260
 5816SOL    HW218899   3.153   5.856   4.470 -0.3254 -2.7474 -0.8419
 5817SOL     OW18900   2.149   0.217   4.803  0.4635  0.1617  0.7646
 5817SOL    HW118901   2.119   0.183   4.719  0.3688 -0.9562  1.2381
 5817SOL    HW218902   2.171   0.309   4.785 -3.5332  1.2712  0.4006
 5818SOL     OW18903   1.291   1.195   4.425 -0.4130 -0.3049 -0.6766
 5818SOL    HW118904   1.293   1.260   4.496  0.7842 -0.1295 -0.8516
 5818SOL    HW218905   1.358   1.131   4.450  2.7194  1.6451 -3.3624
 5819SOL     OW18906   6.448   2.178   6.588 -0.0868  0.3943 -0.3005
 5819SOL    HW118907   6.396   2.129   6.523  2.8879 -0.3862 -2.2905
 5819SOL    HW218908   6.495   2.243   6.536  0.4818  1.4579  1.4963
 5820SOL     OW18909   1.329   5.397   2.122  0.1064  0.2228 -0.1251
 5820SOL    HW118910   1.309   5.318   2.172  1.0327  0.5498  0.7908
 5820SOL    HW218911   1.392   5.445   2.176  1.5901  0.3236 -1.8507
 5821SOL     OW18912   3.207   2.787   2.161 -0.0720 -0.1039 -0.0955
 5821SOL    HW118913   3.153   2.817   2.088 -0.8945 -1.7183 -0.1721
 5821SOL    HW218914   3.279   2.851   2.164 -0.4657  0.4806 -1.7724
 5822SOL     OW18915   7.076   2.868   5.309  0.4341 -0.8191  0.6241
 5822SOL    HW118916   7.013   2.840   5.243 -0.7447  0.3202  1.2342
 5822SOL    HW218917   7.160   2.836   5.276 -0.3320 -1.6700 -0.6086
 5823SOL     OW18918   0.837   4.747   3.650 -0.1981 -0.1308  0.7706
 5823SOL    HW118919   0.856   4.695   3.728 -0.4141 -0.4203  0.6343
 5823SOL    HW218920   0.871   4.695   3.578 -2.5783 -1.2984  0.3856
 5824SOL     OW18921   1.590   6.455   0.997  0.0247  0.2609 -0.6003
 5824SOL    HW118922   1.589   6.549   0.984 -0.8474  0.6366  1.7090
 5824SOL    HW218923   1.506   6.425   0.963  0.1501  0.3597 -1.0024
 5825SOL     OW18924   5.145   4.958   3.429  0.2634  0.2228  0.1653
 5825SOL    HW118925   5.117   4.868   3.411  1.2098 -0.3923  1.5561
 5825SOL    HW218926   5.105   5.010   3.360  0.3646 -1.3765 -1.1614
 5826SOL     OW18927   0.065   4.166   3.054  0.3363 -0.0255  0.0726
 5826SOL    HW118928   0.148   4.199   3.089  2.5771 -4.1744 -0.5973
 5826SOL    HW218929   0.033   4.236   2.997  2.0216  2.7001  2.2136
 5827SOL     OW18930   4.202   3.705   0.003  0.1972  0.0208 -0.4131
 5827SOL    HW118931   4.206   3.791   0.045 -1.7368 -0.8358  1.7371
 5827SOL    HW218932   4.289   3.693  -0.036  1.4465  1.7999  1.6193
 5828SOL     OW18933   1.652   6.377   7.046 -0.0648 -0.6447  0.2370
 5828SOL    HW118934   1.634   6.334   6.962 -1.2420 -0.2296  0.2532
 5828SOL    HW218935   1.580   6.349   7.103  0.3460 -0.3759  0.9005
 5829SOL     OW18936   1.360   3.195   6.523 -0.0523 -0.4139 -0.1411
 5829SOL    HW118937   1.422   3.125   6.505 -0.5707 -1.0636  0.5102
 5829SOL    HW218938   1.312   3.165   6.600 -1.1078  0.1067 -0.5739
 5830SOL     OW18939   0.967   0.224   5.737  0.2354 -0.0608  0.1037
 5830SOL    HW118940   0.951   0.303   5.789  1.3322 -0.9435  1.8758
 5830SOL    HW218941   0.938   0.152   5.794 -2.4032 -0.9481 -2.1166
 5831SOL     OW18942   4.246   7.119   7.118  0.2388 -0.7671  0.2190
 5831SOL    HW118943   4.192   7.045   7.091  0.0983 -0.8975  0.8495
 5831SOL    HW218944   4.191   7.196   7.103 -0.5985 -0.9736  1.9566
 5832SOL     OW18945   0.958   5.269   5.339  0.1109  0.0964 -0.1064
 5832SOL    HW118946   0.938   5.343   5.282  1.5405  0.4852 -0.1514
 5832SOL    HW218947   1.048   5.285   5.368  0.4165 -1.5695 -0.0419
 5833SOL     OW18948   2.448   3.280   6.050 -0.3315 -0.2267  0.1481
 5833SOL    HW118949   2.488   3.205   6.005  0.6622  1.5243 -2.0608
 5833SOL    HW218950   2.515   3.348   6.047 -1.4502  0.9945  1.5080
 5834SOL     OW18951   2.798   0.541   1.946  0.2679  0.2272  0.6365
 5834SOL    HW118952   2.830   0.596   1.874  0.1355  2.0835  1.9401
 5834SOL    HW218953   2.857   0.559   2.019  0.2379 -1.4292  1.1198
 5835SOL     OW18954   5.662   1.474   6.242 -0.0114  0.1934  0.0241
 5835SOL    HW118955   5.660   1.395   6.188 -0.3687  0.7607 -0.8018
 5835SOL    HW218956   5.729   1.456   6.308  2.1153  0.3884 -1.9870
 5836SOL     OW18957   0.647   0.648   3.827 -0.1005  0.1026  0.4221
 5836SOL    HW118958   0.579   0.594   3.866 -0.3273  0.0820  0.0048
 5836SOL    HW218959   0.667   0.605   3.744  1.1765 -0.4958  1.0087
 5837SOL     OW18960   0.321   1.200   5.094 -0.2092  0.3155  0.6099
 5837SOL    HW118961   0.350   1.111   5.074 -1.5732  0.0013 -0.0888
 5837SOL    HW218962   0.379   1.229   5.164  0.1754 -1.1770  0.9390
 5838SOL     OW18963   4.217   0.609   4.138  0.1110  0.1393 -0.7703
 5838SOL    HW118964   4.216   0.666   4.215  0.5749 -2.1531  1.0561
 5838SOL    HW218965   4.300   0.627   4.096  0.9739 -0.2388  0.6846
 5839SOL     OW18966   3.884   4.768   2.368  0.2493  0.2086 -0.5381
 5839SOL    HW118967   3.881   4.800   2.278 -3.8274 -0.5478 -0.8696
 5839SOL    HW218968   3.849   4.679   2.363  0.2684  0.0085  1.7323
 5840SOL     OW18969   5.497   1.068   0.827  0.4442  0.1022 -0.3536
 5840SOL    HW118970   5.488   1.085   0.733 -0.0648 -2.5112 -0.8439
 5840SOL    HW218971   5.585   1.031   0.836 -0.0763 -1.1041 -0.0675
 5841SOL     OW18972   1.185   5.696   2.290 -0.1482 -0.0596  0.0126
 5841SOL    HW118973   1.254   5.634   2.314 -1.3248 -1.2908  0.3817
 5841SOL    HW218974   1.152   5.727   2.374  0.3632  1.0225 -0.1710
 5842SOL     OW18975   1.579   4.262   3.569  0.2339 -0.5080  0.3194
 5842SOL    HW118976   1.615   4.339   3.525  1.6327 -0.1664  1.9443
 5842SOL    HW218977   1.586   4.192   3.504  0.6934  0.3213 -0.5564
 5843SOL     OW18978   6.156   5.880   3.339 -0.0733 -0.0931  0.4529
 5843SOL    HW118979   6.167   5.879   3.434  1.8206 -0.9075  0.2557
 5843SOL    HW218980   6.230   5.830   3.305 -0.8228  0.0091 -1.4531
 5844SOL     OW18981   0.184   4.440   1.720 -0.1357 -0.5004  0.6507
 5844SOL    HW118982   0.171   4.393   1.637 -2.2771  2.7388 -1.0655
 5844SOL    HW218983   0.278   4.461   1.721 -0.3180  0.8451 -1.9333
 5845SOL     OW18984   5.736   2.275   7.042  0.2498 -0.0760  0.2409
 5845SOL    HW118985   5.744   2.269   7.137  0.6062 -0.1631  0.2056
 5845SOL    HW218986   5.709   2.365   7.025  0.9053  0.1441  0.3773
 5846SOL     OW18987   1.060   5.695   0.192  0.3832 -0.3225  0.3878
 5846SOL    HW118988   1.000   5.751   0.141 -1.4812 -3.8273 -1.6785
 5846SOL    HW218989   1.092   5.631   0.128  1.0926 -2.5958  2.8594
 5847SOL     OW18990   1.897   6.686   0.962  0.5770  0.5372 -0.3348
 5847SOL    HW118991   1.840   6.610   0.973 -0.7967  1.4593 -0.8555
 5847SOL    HW218992   1.936   6.699   1.048 -1.6438  1.1274  0.6682
 5848SOL     OW18993   6.707   2.580   5.719  0.2359 -0.6518  0.4368
 5848SOL    HW118994   6.742   2.643   5.656 -1.1331 -0.4835 -0.1904
 5848SOL    HW218995   6.707   2.497   5.672 -0.3774 -0.6102  0.3581
 5849SOL     OW18996   4.946   4.951   6.003  0.1112  0.3727 -0.0945
 5849SOL    HW118997   4.980   4.939   6.091 -1.2627  0.4486  0.4712
 5849SOL    HW218998   4.969   5.041   5.980 -0.4558  0.7074  0.6234
 5850SOL     OW18999   0.837   1.703   0.117  0.7159 -0.5237  0.2463
 5850SOL    HW119000   0.763   1.751   0.080  0.9003 -0.0584  0.4728
 5850SOL    HW219001   0.915   1.748   0.083  0.8903 -0.2020  1.0307
 5851SOL     OW19002   7.051   4.946   1.256  0.1561  0.1333 -0.1381
 5851SOL    HW119003   7.053   4.976   1.165 -1.9924  0.5854 -0.0877
 5851SOL    HW219004   6.979   4.884   1.259 -0.4694  0.8774  1.4665
 5852SOL     OW19005   6.646   1.782   5.261 -0.0537  0.0625 -0.3939
 5852SOL    HW119006   6.686   1.698   5.286 -3.0448 -0.6593  2.7187
 5852SOL    HW219007   6.602   1.763   5.178 -0.8349 -1.5799  0.3442
 5853SOL     OW19008   5.118   6.494   7.062 -0.6220  0.3253 -0.5635
 5853SOL    HW119009   5.155   6.550   6.994  0.0193 -0.1552 -0.6117
 5853SOL    HW219010   5.144   6.405   7.039  0.8059  0.2766  1.0262
 5854SOL     OW19011   5.965   6.277   4.316  0.5378  0.1642 -0.4440
 5854SOL    HW119012   5.942   6.205   4.375  2.9471 -1.3601 -1.2098
 5854SOL    HW219013   5.912   6.351   4.346  0.2757 -1.0522  2.3975
 5855SOL     OW19014   4.786   0.374   5.022 -0.7556  0.1751 -0.2499
 5855SOL    HW119015   4.733   0.368   4.943  0.0673  1.5135 -0.9436
 5855SOL    HW219016   4.722   0.376   5.094 -1.5383 -0.4389 -0.9146
 5856SOL     OW19017   6.273   2.202   0.444 -0.4080 -0.0160  0.0278
 5856SOL    HW119018   6.187   2.180   0.480  0.1567  0.2986  1.6230
 5856SOL    HW219019   6.306   2.272   0.500  0.4082  0.6954 -1.2887
 5857SOL     OW19020   3.348   3.523   2.395 -0.0376 -0.2347 -0.0427
 5857SOL    HW119021   3.386   3.525   2.307 -0.8147  2.4588 -0.4000
 5857SOL    HW219022   3.366   3.610   2.431 -0.8476 -0.8525  2.0029
 5858SOL     OW19023   4.928   4.706   3.908 -0.0207  0.3553 -0.0288
 5858SOL    HW119024   4.991   4.778   3.914  1.4431 -0.8184 -0.5749
 5858SOL    HW219025   4.922   4.688   3.814  1.0750 -1.3986  0.1920
 5859SOL     OW19026   5.479   3.274   5.320 -0.1189 -0.0812 -0.6005
 5859SOL    HW119027   5.390   3.246   5.342  0.7494 -2.7785 -0.1810
 5859SOL    HW219028   5.516   3.303   5.403 -0.1576 -0.3050 -0.5046
 5860SOL     OW19029   0.517   0.695   1.833  0.3421 -0.1899 -0.4951
 5860SOL    HW119030   0.591   0.642   1.805 -1.7800 -2.2062 -2.7084
 5860SOL    HW219031   0.478   0.646   1.905  0.4004  0.2236 -0.1755
 5861SOL     OW19032   5.561   3.070   2.964  0.0676 -0.4615  0.2316
 5861SOL    HW119033   5.598   3.102   2.882  2.2972 -1.2156  0.8774
 5861SOL    HW219034   5.512   3.144   2.999  2.6840  1.3515  0.2903
 5862SOL     OW19035   0.453   4.634   0.713 -0.3206 -0.1677  0.0890
 5862SOL    HW119036   0.429   4.726   0.704  2.2828  0.8176  2.0475
 5862SOL    HW219037   0.521   4.620   0.648  1.6031  0.2965  1.9002
 5863SOL     OW19038   2.211   4.289   4.759 -0.7816  0.0435  0.5898
 5863SOL    HW119039   2.209   4.260   4.668  0.5133  1.4993  0.0474
 5863SOL    HW219040   2.252   4.216   4.806  0.1486 -0.0311 -0.3030
 5864SOL     OW19041   0.420   6.508   1.656 -0.7182 -0.3178  0.9801
 5864SOL    HW119042   0.334   6.480   1.687 -0.5148 -0.6191  1.2868
 5864SOL    HW219043   0.457   6.557   1.729  0.0716 -1.6763  1.5310
 5865SOL     OW19044   5.320   0.814   3.289 -0.2517  0.0138 -0.5395
 5865SOL    HW119045   5.232   0.844   3.312 -0.6521 -1.9823  0.8692
 5865SOL    HW219046   5.306   0.727   3.252  1.1831 -0.9620  1.0759
 5866SOL     OW19047   5.059   0.582   3.466  0.0073 -0.1661  0.2775
 5866SOL    HW119048   5.123   0.648   3.493  0.1593  0.0324 -0.5557
 5866SOL    HW219049   5.065   0.580   3.371 -2.9530  1.6098 -0.0767
 5867SOL     OW19050   2.317   0.096   6.621  0.3839  0.4382  0.4797
 5867SOL    HW119051   2.409   0.073   6.630  1.1689  2.6206 -1.0465
 5867SOL    HW219052   2.274   0.013   6.599  1.8848 -0.6891  1.5692
 5868SOL     OW19053   1.031   2.693   3.408 -0.3790  0.1637  0.1615
 5868SOL    HW119054   0.982   2.635   3.349  0.4976  1.0499 -1.5039
 5868SOL    HW219055   0.990   2.779   3.397  0.1011  0.4390  0.4838
 5869SOL     OW19056   4.994   6.591   2.830 -0.4093 -0.5294  0.2116
 5869SOL    HW119057   4.967   6.513   2.782  1.7343 -1.6610  0.7027
 5869SOL    HW219058   5.078   6.616   2.790  0.4648 -0.3547  2.0394
 5870SOL     OW19059   6.214   7.126   3.447  0.4704  0.3196 -0.2875
 5870SOL    HW119060   6.163   7.171   3.515 -1.3777  0.7556 -1.8757
 5870SOL    HW219061   6.234   7.195   3.383 -0.4795 -0.6127 -1.6561
 5871SOL     OW19062   1.981   2.107   1.308  0.5306 -0.4396  0.2251
 5871SOL    HW119063   1.915   2.072   1.367 -0.3444  0.6867 -0.0517
 5871SOL    HW219064   2.012   2.031   1.258  0.6547 -1.2482  1.4954
 5872SOL     OW19065   0.380   5.933   5.425 -0.3721  0.6272  0.1357
 5872SOL    HW119066   0.439   5.864   5.393 -2.3241 -1.5053  0.8599
 5872SOL    HW219067   0.399   5.939   5.519  1.3560  2.7881 -0.2753
 5873SOL     OW19068   5.757   1.166   1.693  0.3761  0.2037  0.4647
 5873SOL    HW119069   5.770   1.241   1.751  0.0235  1.5387 -1.1021
 5873SOL    HW219070   5.700   1.199   1.624  3.3203 -0.2484 -2.4363
 5874SOL     OW19071   2.849   2.980   5.849  0.3190 -0.5797 -0.4298
 5874SOL    HW119072   2.894   2.905   5.810  0.8330 -0.6098  0.2051
 5874SOL    HW219073   2.910   3.013   5.915 -0.5847 -0.6290  0.4571
 5875SOL     OW19074   0.023   2.169   7.110  0.2346 -0.4261  0.3114
 5875SOL    HW119075  -0.034   2.242   7.134 -0.1208  0.9313 -3.8026
 5875SOL    HW219076  -0.036   2.096   7.096 -0.0963 -0.0338 -0.4216
 5876SOL     OW19077   1.102   7.100   6.087 -0.0834 -0.3130  0.3247
 5876SOL    HW119078   1.122   7.184   6.045  1.0167 -0.1957  1.0279
 5876SOL    HW219079   1.056   7.124   6.167 -2.5028 -0.5524 -0.9197
 5877SOL     OW19080   5.968   5.130   4.925 -0.0458 -0.2013  0.3693
 5877SOL    HW119081   5.944   5.210   4.879 -1.8732 -1.3272 -0.7791
 5877SOL    HW219082   5.976   5.064   4.856  1.1505 -1.0726  1.3031
 5878SOL     OW19083   3.172   1.934   4.578  0.0831 -0.2043 -0.3882
 5878SOL    HW119084   3.184   1.839   4.570  0.3597 -0.3418  1.2876
 5878SOL    HW219085   3.104   1.944   4.644  0.7212  0.7772  0.1421
 5879SOL     OW19086   7.122   6.213   1.028 -0.0492 -0.2663 -0.0117
 5879SOL    HW119087   7.195   6.275   1.024  0.7015 -1.1603 -0.6658
 5879SOL    HW219088   7.162   6.131   1.057 -1.0181 -0.4676  0.8260
 5880SOL     OW19089   4.222   0.538   5.680  0.2734 -0.6461 -0.1574
 5880SOL    HW119090   4.130   0.522   5.701  0.4760 -1.5106  0.1087
 5880SOL    HW219091   4.225   0.534   5.584  0.2951 -2.2806 -0.1256
 5881SOL     OW19092   4.674   3.973   1.597  0.7846  0.1631  0.1200
 5881SOL    HW119093   4.758   3.964   1.553  1.6051  0.6317  1.5120
 5881SOL    HW219094   4.628   4.041   1.548  1.2406 -0.0466 -0.6139
 5882SOL     OW19095   3.849   1.158   6.124  0.1722 -0.0264 -0.1295
 5882SOL    HW119096   3.878   1.158   6.215  1.0339  0.3642 -0.3975
 5882SOL    HW219097   3.801   1.076   6.113  1.7171 -0.9921  0.1566
 5883SOL     OW19098   1.890   0.814   3.632 -0.6367 -0.1824 -0.1390
 5883SOL    HW119099   1.856   0.831   3.545 -0.5854  1.4435  0.1419
 5883SOL    HW219100   1.980   0.784   3.618  0.3020  2.6263 -0.5695
 5884SOL     OW19101   2.943   1.676   5.089 -0.0711  0.5482  0.7682
 5884SOL    HW119102   2.911   1.589   5.112 -0.1861  0.0897 -0.9556
 5884SOL    HW219103   2.865   1.731   5.086 -0.0548  0.6056  1.4367
 5885SOL     OW19104   6.674   4.378   6.128 -0.6322 -0.0621  0.4349
 5885SOL    HW119105   6.736   4.445   6.101 -0.8531 -0.0040  0.0610
 5885SOL    HW219106   6.606   4.425   6.177  0.9553 -0.4571  3.2018
 5886SOL     OW19107   2.355   6.443   5.057  0.2098 -0.3891  0.3056
 5886SOL    HW119108   2.268   6.409   5.036 -0.5810  0.9520  1.2426
 5886SOL    HW219109   2.387   6.387   5.127  0.0535 -0.7956  0.0569
 5887SOL     OW19110   1.574   1.191   6.196 -0.1625  0.0352 -0.0535
 5887SOL    HW119111   1.510   1.163   6.130  0.2686 -0.3094 -0.3340
 5887SOL    HW219112   1.656   1.199   6.147 -0.2616  1.8040  0.0199
 5888SOL     OW19113   4.651   5.303   3.653  0.4028  0.4561 -0.4956
 5888SOL    HW119114   4.577   5.350   3.693  0.9988  1.2016 -0.2423
 5888SOL    HW219115   4.680   5.242   3.722  0.0377  0.1735 -0.5897
 5889SOL     OW19116   3.308   0.465   1.617  0.3175 -0.5879  0.2201
 5889SOL    HW119117   3.332   0.484   1.526 -0.4061 -0.1117  0.1177
 5889SOL    HW219118   3.371   0.515   1.669  0.5891 -0.6766 -0.0184
 5890SOL     OW19119   6.778   1.216   1.466 -0.3051 -0.0839  0.2621
 5890SOL    HW119120   6.787   1.223   1.371  0.8542  1.0036  0.4181
 5890SOL    HW219121   6.818   1.131   1.488 -1.0119 -0.5592 -0.2522
 5891SOL     OW19122   4.067   0.930   1.992 -0.2097  0.4273 -0.2845
 5891SOL    HW119123   4.025   0.994   2.050  1.3581  1.7102 -0.4921
 5891SOL    HW219124   4.001   0.913   1.925 -1.1641  0.7695  0.5427
 5892SOL     OW19125   2.340   0.246   0.195  0.1508  0.1658 -0.0509
 5892SOL    HW119126   2.301   0.182   0.254 -2.7469  1.8787  0.0699
 5892SOL    HW219127   2.357   0.198   0.114 -2.0795 -0.8109 -0.0104
 5893SOL     OW19128   3.171   0.601   2.592 -0.0937  0.1545  0.7795
 5893SOL    HW119129   3.245   0.568   2.541 -1.7167 -1.8720 -0.4420
 5893SOL    HW219130   3.157   0.535   2.659 -3.0839 -1.6776 -1.3878
 5894SOL     OW19131   2.854   0.265   0.493 -0.4227 -0.5645 -0.1571
 5894SOL    HW119132   2.860   0.255   0.398 -1.4471 -0.6349 -0.2186
 5894SOL    HW219133   2.926   0.324   0.515 -0.5583 -0.0475 -1.0532
 5895SOL     OW19134   6.482   6.257   6.930 -0.5955  0.1085 -0.0119
 5895SOL    HW119135   6.443   6.338   6.896  0.9845  1.3635  0.9706
 5895SOL    HW219136   6.537   6.226   6.858 -1.5547 -0.3727 -0.5565
 5896SOL     OW19137   5.492   4.289   3.452  0.2415 -0.1880 -0.0089
 5896SOL    HW119138   5.439   4.236   3.511 -0.6596 -0.7826 -1.3189
 5896SOL    HW219139   5.555   4.228   3.415 -0.8709 -0.4196 -1.6064
 5897SOL     OW19140   4.743   2.172   6.419  0.2590  0.1686 -0.4122
 5897SOL    HW119141   4.837   2.176   6.399  0.5224  1.3672  0.8592
 5897SOL    HW219142   4.701   2.216   6.345  0.7629  0.2246 -0.6704
 5898SOL     OW19143   1.778   2.218   3.138 -0.0256 -0.2932 -0.2832
 5898SOL    HW119144   1.836   2.143   3.134 -0.4760 -0.6606 -0.0418
 5898SOL    HW219145   1.726   2.213   3.057 -0.9054 -0.9524  0.3016
 5899SOL     OW19146   5.866   5.316   4.771  0.5976 -0.6334 -0.4677
 5899SOL    HW119147   5.855   5.411   4.769  1.2674 -0.4180  2.2135
 5899SOL    HW219148   5.781   5.281   4.744 -0.7118  0.7941  1.5053
 5900SOL     OW19149   3.780   3.878   2.147 -0.2408  0.3647  0.2852
 5900SOL    HW119150   3.699   3.868   2.097  0.4471 -2.1836 -0.4894
 5900SOL    HW219151   3.754   3.862   2.238 -0.3740 -2.9057 -0.1853
 5901SOL     OW19152   1.728   0.784   5.253  1.0796  0.2195  0.5247
 5901SOL    HW119153   1.729   0.872   5.291  0.6539  0.6930 -0.5061
 5901SOL    HW219154   1.698   0.728   5.324 -0.2915  1.1677  0.7421
 5902SOL     OW19155   6.668   0.944   5.068 -0.0653  0.5086 -0.0780
 5902SOL    HW119156   6.577   0.968   5.048  0.5199  1.7607 -1.3837
 5902SOL    HW219157   6.664   0.851   5.090 -2.0206  1.0339  2.3363
 5903SOL     OW19158   6.151   2.709   4.398  0.8292 -0.3871 -0.1033
 5903SOL    HW119159   6.195   2.773   4.454  0.7991 -1.1710  0.8342
 5903SOL    HW219160   6.149   2.629   4.450 -2.5171 -0.1827  0.3504
 5904SOL     OW19161   0.498   0.582   6.583 -0.1014  0.5881 -0.5485
 5904SOL    HW119162   0.510   0.638   6.506  1.5951  0.4823 -0.3895
 5904SOL    HW219163   0.586   0.568   6.617 -0.7930  0.5121  1.3451
 5905SOL     OW19164   5.909   6.903   4.667  0.6011  0.0069 -0.3829
 5905SOL    HW119165   5.886   6.936   4.754  0.6919 -2.3676  0.6378
 5905SOL    HW219166   5.975   6.963   4.634 -0.5483  1.8394  0.5081
 5906SOL     OW19167   1.784   6.495   0.760  0.2998  0.1063 -0.0528
 5906SOL    HW119168   1.722   6.458   0.696  1.1967 -0.4372 -0.6274
 5906SOL    HW219169   1.793   6.426   0.827  0.0181  0.3288  0.2169
 5907SOL     OW19170   4.746   6.020   5.879  0.2754 -0.3865 -0.2884
 5907SOL    HW119171   4.706   6.089   5.932 -1.7619 -1.5239 -0.2322
 5907SOL    HW219172   4.671   5.970   5.845  1.6443 -3.2199  0.5395
 5908SOL     OW19173   1.746   3.119   3.684 -0.3718 -0.1712  0.2985
 5908SOL    HW119174   1.783   3.125   3.772  0.0655  1.4288  0.0390
 5908SOL    HW219175   1.801   3.056   3.638 -0.5348 -0.9257  1.1286
 5909SOL     OW19176   1.082   3.317   1.038  0.5423 -0.1600  0.0471
 5909SOL    HW119177   1.001   3.326   0.989  1.1307 -0.1728 -0.9432
 5909SOL    HW219178   1.084   3.394   1.095  0.2395  0.2771 -0.5251
 5910SOL     OW19179   4.304   6.441   2.456 -1.0878  0.4560  0.2455
 5910SOL    HW119180   4.248   6.373   2.418 -1.7981  1.9663 -1.5547
 5910SOL    HW219181   4.389   6.428   2.414 -0.8082 -0.1417  0.9565
 5911SOL     OW19182   2.141   1.450   3.052 -0.0263  0.2438 -0.0031
 5911SOL    HW119183   2.180   1.534   3.075  1.5819 -0.2223 -0.8641
 5911SOL    HW219184   2.098   1.466   2.968 -0.0233  0.2948  0.0051
 5912SOL     OW19185   1.373   6.061   3.920 -0.2115 -0.5905  0.6010
 5912SOL    HW119186   1.333   5.996   3.861  0.4197 -1.1887  0.8216
 5912SOL    HW219187   1.454   6.086   3.876 -0.1405 -0.4236  0.8256
 5913SOL     OW19188   0.824   4.218   6.213 -0.3076 -0.3597  0.6905
 5913SOL    HW119189   0.792   4.188   6.298 -0.4945  0.6623  0.9988
 5913SOL    HW219190   0.772   4.169   6.149  0.2788 -1.6052  1.1434
 5914SOL     OW19191   5.822   3.428   5.465  0.7239  0.4291  0.4417
 5914SOL    HW119192   5.754   3.378   5.510 -0.7876  0.2051 -1.9417
 5914SOL    HW219193   5.896   3.368   5.461  0.2732 -0.1891  1.0138
 5915SOL     OW19194   6.659   5.871   5.764  0.2020 -0.5830 -0.0230
 5915SOL    HW119195   6.595   5.940   5.780  0.3225 -0.2223 -1.0558
 5915SOL    HW219196   6.607   5.790   5.765 -0.5655 -0.1788 -2.3292
 5916SOL     OW19197   1.538   2.456   2.058 -0.4776 -0.9074  0.3784
 5916SOL    HW119198   1.595   2.429   1.986  0.6930  0.4708  0.7483
 5916SOL    HW219199   1.487   2.377   2.078 -0.1748 -1.5926 -1.3151
 5917SOL     OW19200   6.635   1.170   1.832  0.0830  0.4576 -0.2480
 5917SOL    HW119201   6.674   1.256   1.849 -1.0795  0.7332  1.1987
 5917SOL    HW219202   6.670   1.114   1.901 -0.5496  0.2185 -0.1138
 5918SOL     OW19203   7.050   2.485   1.917 -0.0260 -0.3229  0.6336
 5918SOL    HW119204   7.004   2.459   1.997  0.2494 -1.4624  0.4392
 5918SOL    HW219205   6.982   2.485   1.849 -0.1883  0.2915  0.7905
 5919SOL     OW19206   4.060   4.734   0.453  0.9264  0.3342  0.8037
 5919SOL    HW119207   4.035   4.788   0.529  1.6246 -1.0408  2.0577
 5919SOL    HW219208   4.155   4.735   0.453  0.9598  1.4903 -0.9785
 5920SOL     OW19209   0.089   6.038   6.967  0.3854  0.3009  0.2876
 5920SOL    HW119210   0.137   6.109   7.009  0.8425 -0.0078  0.2862
 5920SOL    HW219211   0.061   5.982   7.039  0.4324  0.2278  0.2488
 5921SOL     OW19212   2.089   4.117   1.043  0.4810  0.2385 -0.9500
 5921SOL    HW119213   2.035   4.046   1.008 -0.1236  1.0375 -1.6659
 5921SOL    HW219214   2.179   4.087   1.030  0.2346 -0.8776 -0.2243
 5922SOL     OW19215   3.856   0.918   0.954  0.3502 -0.1346  0.1139
 5922SOL    HW119216   3.909   0.945   0.878 -0.0709 -2.2385 -0.9937
 5922SOL    HW219217   3.780   0.975   0.950  0.9437  0.6597 -0.2677
 5923SOL     OW19218   4.009   1.833   6.360 -0.0856 -0.1716 -0.2679
 5923SOL    HW119219   4.087   1.887   6.370 -0.1367 -0.1249 -0.1209
 5923SOL    HW219220   4.013   1.801   6.270 -0.4630  0.6960 -0.5937
 5924SOL     OW19221   1.188   4.670   2.199  0.2675  0.3641 -0.3387
 5924SOL    HW119222   1.098   4.637   2.203  0.9800 -1.6854 -0.4999
 5924SOL    HW219223   1.200   4.696   2.107 -0.1812  0.7899 -0.2850
 5925SOL     OW19224   1.871   2.433   2.011  0.0307  0.1706  0.4761
 5925SOL    HW119225   1.956   2.419   1.969 -0.7280 -0.2361 -0.9774
 5925SOL    HW219226   1.886   2.505   2.072  1.0164  1.3243 -1.0665
 5926SOL     OW19227   1.877   3.625   0.858 -0.0181 -0.4070  0.1011
 5926SOL    HW119228   1.922   3.546   0.829  1.2144  0.2508  0.1702
 5926SOL    HW219229   1.827   3.597   0.934  0.5600 -1.0854  0.2400
 5927SOL     OW19230   4.171   1.560   5.200  0.1735  0.1492 -0.4600
 5927SOL    HW119231   4.107   1.503   5.159 -0.4612 -0.4101  1.2225
 5927SOL    HW219232   4.245   1.503   5.219  0.1903  0.2527 -0.2181
 5928SOL     OW19233   4.847   0.347   5.828 -0.5609  0.7284 -0.5575
 5928SOL    HW119234   4.894   0.399   5.762 -0.9384  0.5249 -0.9970
 5928SOL    HW219235   4.799   0.282   5.776  0.5539 -0.5986  0.0208
 5929SOL     OW19236   3.691   3.404   3.058 -0.1423 -0.3122 -0.3199
 5929SOL    HW119237   3.772   3.401   3.108 -1.3070 -2.4479  1.6354
 5929SOL    HW219238   3.683   3.496   3.031  1.9010  0.3697  1.1469
 5930SOL     OW19239   0.109   5.440   3.458 -0.3083 -0.3692 -0.5711
 5930SOL    HW119240   0.153   5.364   3.497 -0.8943  0.3151  1.5961
 5930SOL    HW219241   0.016   5.426   3.477 -0.3538  1.2399  0.6347
 5931SOL     OW19242   4.092   4.754   4.442  0.1773  0.5281 -0.2621
 5931SOL    HW119243   4.030   4.736   4.514  0.0700  3.2586  0.4422
 5931SOL    HW219244   4.169   4.701   4.463 -1.5061 -2.3013 -0.7014
 5932SOL     OW19245   0.460   3.792   1.268  0.3085 -0.1432 -0.3794
 5932SOL    HW119246   0.441   3.718   1.326  1.2215  0.3741  0.6208
 5932SOL    HW219247   0.408   3.864   1.304 -0.0892 -0.1295 -0.9695
 5933SOL     OW19248   6.571   3.571   1.395 -0.1074  0.1192 -0.0932
 5933SOL    HW119249   6.530   3.635   1.337  0.0916 -0.9563 -1.4748
 5933SOL    HW219250   6.579   3.616   1.479  1.0793  2.3046 -1.2974
 5934SOL     OW19251   3.856   5.857   6.287 -0.2756  0.0859  0.1075
 5934SOL    HW119252   3.892   5.841   6.375  0.0445  1.0849  0.1679
 5934SOL    HW219253   3.836   5.770   6.254  2.7256 -0.6221 -0.1590
 5935SOL     OW19254   5.555   6.129   7.061 -0.4401  0.4043 -0.5754
 5935SOL    HW119255   5.602   6.183   7.124 -2.4533  3.1203 -1.2499
 5935SOL    HW219256   5.479   6.095   7.109 -0.6753  0.4715 -0.8900
 5936SOL     OW19257   7.104   5.147   1.474 -0.0444 -0.0654  0.1834
 5936SOL    HW119258   7.116   5.107   1.560  1.8340 -1.9551 -0.8522
 5936SOL    HW219259   7.080   5.074   1.417  0.3258  0.8593 -1.1995
 5937SOL     OW19260   4.289   2.154   7.138 -0.5869  0.2530  0.1871
 5937SOL    HW119261   4.351   2.165   7.065  0.0844  1.2081  0.8704
 5937SOL    HW219262   4.219   2.101   7.101  0.6620 -0.9409 -0.6029
 5938SOL     OW19263   2.571   0.582   2.139 -0.0586 -0.2391 -0.1590
 5938SOL    HW119264   2.615   0.499   2.125  1.4019  0.8513 -2.8277
 5938SOL    HW219265   2.639   0.639   2.176 -0.2532  0.4575 -0.8445
 5939SOL     OW19266   6.646   0.628   5.749  0.7304 -0.2090 -0.2773
 5939SOL    HW119267   6.581   0.667   5.808  1.0070  0.7225 -0.5737
 5939SOL    HW219268   6.594   0.580   5.685  0.4298 -1.5413  0.8958
 5940SOL     OW19269   1.702   1.987   4.029 -0.0825 -0.6782  0.2247
 5940SOL    HW119270   1.656   2.058   3.983  1.2115  0.4709  0.6353
 5940SOL    HW219271   1.787   2.024   4.052 -0.4730 -1.3373  3.1475
 5941SOL     OW19272   3.726   2.494   1.724  0.3571 -0.0408  0.4083
 5941SOL    HW119273   3.810   2.509   1.681 -0.0613  0.7820 -0.1458
 5941SOL    HW219274   3.737   2.410   1.768  2.3350  1.1761  2.4632
 5942SOL     OW19275   3.338   2.233   2.439  0.2774 -0.4029  0.1269
 5942SOL    HW119276   3.253   2.257   2.476  0.6288 -2.3938  2.5039
 5942SOL    HW219277   3.317   2.192   2.355 -1.1609 -0.9880  0.7258
 5943SOL     OW19278   3.243   3.694   5.603  0.0320 -0.0050  0.2301
 5943SOL    HW119279   3.306   3.755   5.642 -1.1030  0.5650  1.2508
 5943SOL    HW219280   3.288   3.609   5.606  0.2820  0.1344  2.2187
 5944SOL     OW19281   6.377   1.553   2.172  0.1630 -0.3824 -0.0685
 5944SOL    HW119282   6.425   1.487   2.221 -2.1881 -1.3886  1.0534
 5944SOL    HW219283   6.381   1.524   2.081 -0.6865 -2.0502  0.3896
 5945SOL     OW19284   4.221   2.204   5.169  0.5424 -0.1000  0.0254
 5945SOL    HW119285   4.239   2.271   5.235 -1.8796  0.1123  0.5663
 5945SOL    HW219286   4.290   2.139   5.181  0.6855  0.3861  2.1634
 5946SOL     OW19287   0.233   0.859   3.317 -0.0259  0.3889  0.4629
 5946SOL    HW119288   0.279   0.940   3.340  1.0648  0.1928 -0.8682
 5946SOL    HW219289   0.154   0.860   3.370  0.9725  1.3093  2.0038
 5947SOL     OW19290   2.904   2.926   5.321  0.0188 -0.2259  0.2052
 5947SOL    HW119291   2.824   2.971   5.293 -0.6541  0.1135  2.4916
 5947SOL    HW219292   2.875   2.839   5.349  0.5122 -0.2524  0.6575
 5948SOL     OW19293   6.296   5.749   5.572  0.3517 -0.1382  0.0882
 5948SOL    HW119294   6.300   5.759   5.667 -0.4970 -0.9450  0.2224
 5948SOL    HW219295   6.367   5.689   5.550 -1.3706 -2.5208  0.6331
 5949SOL     OW19296   3.604   5.556   4.563 -0.4177  0.0409 -0.2367
 5949SOL    HW119297   3.634   5.468   4.586  0.0507  0.8133  2.4236
 5949SOL    HW219298   3.521   5.542   4.518 -0.1524 -1.7832 -0.2244
 5950SOL     OW19299   3.562   1.546   0.427  0.1821 -0.4771 -0.1641
 5950SOL    HW119300   3.648   1.588   0.436  0.6353 -1.7545  2.2009
 5950SOL    HW219301   3.564   1.509   0.339  2.0519 -0.4295 -0.1982
 5951SOL     OW19302   6.822   0.382   6.378  0.3263 -0.3659  0.2196
 5951SOL    HW119303   6.771   0.301   6.368 -1.8220  0.4038  3.4878
 5951SOL    HW219304   6.893   0.358   6.437  1.3304 -0.4131 -0.9592
 5952SOL     OW19305   0.427   3.653   1.045 -0.7687 -0.1791  0.2822
 5952SOL    HW119306   0.334   3.650   1.068 -0.3259  1.4814  2.6070
 5952SOL    HW219307   0.469   3.693   1.121  1.9021 -1.0944 -0.6171
 5953SOL     OW19308   1.729   6.014   3.955  0.3068  0.0318 -0.3173
 5953SOL    HW119309   1.731   5.990   4.048  2.4574 -0.3683 -0.4200
 5953SOL    HW219310   1.667   5.953   3.916  0.2549 -0.5684  0.6646
 5954SOL     OW19311   1.298   6.757   1.061 -0.0920  0.4050  0.5050
 5954SOL    HW119312   1.293   6.748   0.965 -0.4152  2.3359  0.3000
 5954SOL    HW219313   1.287   6.851   1.077  1.9621  0.3978  2.3331
 5955SOL     OW19314   1.256   6.962   0.773 -0.3125  0.0095 -0.4765
 5955SOL    HW119315   1.261   6.866   0.783 -0.8590  0.1074  0.8945
 5955SOL    HW219316   1.178   6.976   0.720  0.2561 -0.3246 -1.4432
 5956SOL     OW19317   5.713   6.703   1.691  0.1254  0.3113  0.8166
 5956SOL    HW119318   5.663   6.659   1.623  3.7044 -3.3771  0.1261
 5956SOL    HW219319   5.684   6.661   1.772 -0.1898  0.5756  0.8411
 5957SOL     OW19320   7.064   5.469   1.310 -0.5482 -0.3062 -0.3989
 5957SOL    HW119321   7.063   5.416   1.231 -1.6903  0.7925 -1.1481
 5957SOL    HW219322   6.995   5.534   1.298 -0.4224  0.2085  1.2846
 5958SOL     OW19323   1.618   3.521   4.650  0.1675  0.3463  0.7647
 5958SOL    HW119324   1.637   3.572   4.572 -1.9805 -0.2127 -0.1885
 5958SOL    HW219325   1.666   3.439   4.638 -0.9111 -0.1292 -0.4662
 5959SOL     OW19326   1.187   1.401   6.342  0.0232 -0.0263 -0.5520
 5959SOL    HW119327   1.278   1.428   6.350  0.5825 -2.1564  2.1322
 5959SOL    HW219328   1.191   1.315   6.300 -0.7913  0.1035 -0.9101
 5960SOL     OW19329   3.683   5.281   2.434 -0.0194 -0.4558  0.0175
 5960SOL    HW119330   3.715   5.371   2.434 -0.7012 -0.1989  0.6618
 5960SOL    HW219331   3.737   5.235   2.370 -1.0874  0.9116 -1.9459
 5961SOL     OW19332   3.815   2.587   5.239 -0.3826  0.3959 -0.4807
 5961SOL    HW119333   3.857   2.509   5.275 -0.2179  1.0123  0.6809
 5961SOL    HW219334   3.838   2.658   5.299 -0.2907  1.4179 -1.6667
 5962SOL     OW19335   6.289   3.078   5.117 -0.0270 -0.1618 -0.1720
 5962SOL    HW119336   6.220   3.014   5.097 -0.8993  0.5959  0.3745
 5962SOL    HW219337   6.353   3.028   5.167 -0.6963 -0.6300  0.2410
 5963SOL     OW19338   5.105   3.134   4.528  0.1190  0.0432 -0.0925
 5963SOL    HW119339   5.140   3.142   4.617  1.2751  0.2185 -0.5493
 5963SOL    HW219340   5.058   3.051   4.528  1.2219 -0.6060  0.3232
 5964SOL     OW19341   3.350   2.861   3.511 -0.2803 -0.1533 -0.6658
 5964SOL    HW119342   3.292   2.886   3.439 -1.3985 -2.4616 -0.6513
 5964SOL    HW219343   3.309   2.896   3.589 -1.2335 -1.0417 -0.7513
 5965SOL     OW19344   5.807   5.668   1.446 -0.1269  0.3972  0.2130
 5965SOL    HW119345   5.827   5.704   1.533  0.2703 -0.7711  0.6187
 5965SOL    HW219346   5.757   5.738   1.403  3.2305  2.7548 -0.2229
 5966SOL     OW19347   2.054   2.444   4.238  0.1601  0.5018 -0.3676
 5966SOL    HW119348   2.084   2.465   4.327 -1.4457 -1.3085  0.6624
 5966SOL    HW219349   1.968   2.486   4.232 -0.5350 -0.8839 -0.3737
 5967SOL     OW19350   2.593   6.372   1.696  0.5422  0.2123  0.4108
 5967SOL    HW119351   2.509   6.381   1.653  0.0812 -1.1772  0.9802
 5967SOL    HW219352   2.635   6.458   1.684 -1.3409  1.2836  0.9793
 5968SOL     OW19353   6.366   1.470   1.914  0.8792  0.1946 -0.3862
 5968SOL    HW119354   6.413   1.546   1.881  0.5438  0.5029 -0.1480
 5968SOL    HW219355   6.301   1.450   1.847  0.2875  0.7386  0.0265
 5969SOL     OW19356   2.354   3.018   2.020  0.2132  0.1016  0.3715
 5969SOL    HW119357   2.371   3.112   2.028 -1.1256  0.5376 -1.2591
 5969SOL    HW219358   2.435   2.981   1.987  0.5246  0.7898  0.3548
 5970SOL     OW19359   6.183   2.128   6.127  0.5362 -0.1816  0.1326
 5970SOL    HW119360   6.122   2.062   6.093  0.3069 -0.3455  0.8256
 5970SOL    HW219361   6.243   2.146   6.055 -0.8989  0.6850 -0.9073
 5971SOL     OW19362   1.711   1.633   4.575 -0.0244  0.0339  0.1706
 5971SOL    HW119363   1.783   1.693   4.596 -0.0329 -0.0567  0.4585
 5971SOL    HW219364   1.673   1.669   4.495  0.1765  0.2301  0.1614
 5972SOL     OW19365   2.594   3.225   1.766  0.1284  0.2281 -0.5053
 5972SOL    HW119366   2.642   3.305   1.745 -0.2857  1.3732  2.4596
 5972SOL    HW219367   2.502   3.247   1.747  0.1509  0.0064 -0.8755
 5973SOL     OW19368   6.680   2.681   1.332 -0.1501  0.1962  0.1753
 5973SOL    HW119369   6.696   2.775   1.343  0.8759 -0.0122  0.5388
 5973SOL    HW219370   6.693   2.666   1.238  3.0182 -0.1336  0.5486
 5974SOL     OW19371   6.965   4.474   3.130 -0.2703 -0.1431  0.3874
 5974SOL    HW119372   7.060   4.474   3.117 -0.1560  0.5733  1.1131
 5974SOL    HW219373   6.929   4.481   3.042  0.3175 -1.3452  0.0224
 5975SOL     OW19374   1.965   2.910   0.950  0.0393 -0.1980 -0.0700
 5975SOL    HW119375   1.886   2.874   0.990 -0.4570  1.5829  0.6464
 5975SOL    HW219376   1.961   3.004   0.968  3.8232 -0.2985  2.7319
 5976SOL     OW19377   5.189   3.366   2.285  0.5006 -0.1095 -0.8226
 5976SOL    HW119378   5.151   3.279   2.284 -1.8548  0.8254 -2.5548
 5976SOL    HW219379   5.115   3.425   2.268  2.2793  2.0822 -1.5182
 5977SOL     OW19380   0.940   1.658   5.772  0.2277  0.1212 -0.2095
 5977SOL    HW119381   0.856   1.653   5.727  0.5013 -3.5488 -0.6395
 5977SOL    HW219382   0.920   1.693   5.858 -1.5993  0.0600 -0.5684
 5978SOL     OW19383   5.030   2.912   2.735  0.0685 -0.0070  0.2797
 5978SOL    HW119384   4.997   2.996   2.767 -0.5566 -0.2507  0.2871
 5978SOL    HW219385   5.050   2.863   2.815 -1.1094 -0.4638  0.3161
 5979SOL     OW19386   2.964   2.061   3.397  0.1761 -0.3018  0.4106
 5979SOL    HW119387   3.053   2.079   3.427 -0.0213  0.4847  0.5354
 5979SOL    HW219388   2.974   2.036   3.305  0.7208 -2.1203  0.9109
 5980SOL     OW19389   1.567   1.711   3.027 -0.0013 -0.4671  0.1575
 5980SOL    HW119390   1.492   1.698   2.968  2.2939  0.3782 -3.1914
 5980SOL    HW219391   1.583   1.806   3.025  1.9250 -0.7633 -0.3062
 5981SOL     OW19392   2.455   2.177   2.491 -0.2649  0.5114  0.0987
 5981SOL    HW119393   2.460   2.252   2.551  4.1102  1.0725 -0.6767
 5981SOL    HW219394   2.542   2.171   2.452 -2.0082 -1.6403 -4.0987
 5982SOL     OW19395   1.354   4.992   0.674 -0.1466 -0.0865 -0.2096
 5982SOL    HW119396   1.357   5.066   0.613  1.6494  0.0792  0.0137
 5982SOL    HW219397   1.262   4.984   0.698 -0.7037  0.6737 -1.9195
 5983SOL     OW19398   6.201   3.538   4.253 -0.4098 -0.5422  0.0598
 5983SOL    HW119399   6.199   3.600   4.325 -1.7317 -0.9845  0.4181
 5983SOL    HW219400   6.271   3.476   4.277  0.0114  0.0257  0.3302
 5984SOL     OW19401   3.822   3.468   2.621 -0.8345  0.3162 -0.2540
 5984SOL    HW119402   3.836   3.374   2.637 -1.6829  0.3217  0.6629
 5984SOL    HW219403   3.748   3.490   2.678 -1.1540  1.3708 -1.0664
 5985SOL     OW19404   7.005   6.790   0.787 -0.1668 -0.3941  0.0174
 5985SOL    HW119405   6.931   6.795   0.726  0.8034 -1.3032 -1.2962
 5985SOL    HW219406   6.990   6.709   0.836  0.0216 -0.6672 -0.3664
 5986SOL     OW19407   0.154   4.019   5.365  0.9817  0.0736  0.4932
 5986SOL    HW119408   0.201   3.975   5.436  0.1695 -1.0437  0.3644
 5986SOL    HW219409   0.071   4.046   5.405 -0.1282 -1.8867 -0.3550
 5987SOL     OW19410   1.874   6.772   6.161  0.8910  0.0211 -0.1806
 5987SOL    HW119411   1.787   6.733   6.153  0.2872  0.7467  2.2438
 5987SOL    HW219412   1.870   6.850   6.105 -0.5812  0.9016  1.0802
 5988SOL     OW19413   3.352   1.157   6.085 -0.0819  0.4335  0.5565
 5988SOL    HW119414   3.267   1.114   6.079  0.0715  0.2187 -0.1336
 5988SOL    HW219415   3.337   1.246   6.051 -0.0665  0.4506  0.5939
 5989SOL     OW19416   4.853   6.827   2.359  0.3187 -0.1493  0.3719
 5989SOL    HW119417   4.794   6.824   2.434 -0.5663 -1.7288 -0.3355
 5989SOL    HW219418   4.891   6.739   2.355 -0.2816 -0.3759 -1.4783
 5990SOL     OW19419   0.388   4.866   4.298  0.1869  0.2149 -0.7178
 5990SOL    HW119420   0.353   4.864   4.209  0.0472  0.0681 -0.6610
 5990SOL    HW219421   0.482   4.878   4.287 -0.1125  3.0947 -0.8301
 5991SOL     OW19422   0.997   6.862   1.150  0.0092 -0.0793  0.6632
 5991SOL    HW119423   1.015   6.940   1.097  0.0156 -0.4128  0.1706
 5991SOL    HW219424   1.077   6.849   1.201 -0.5604  1.1421  1.9145
 5992SOL     OW19425   2.619   5.426   2.705 -0.0761 -0.9562 -0.2020
 5992SOL    HW119426   2.619   5.432   2.609  2.5829 -0.2479 -0.2532
 5992SOL    HW219427   2.529   5.402   2.728 -0.8347 -0.9795 -2.8476
 5993SOL     OW19428   5.435   5.983   5.291  0.3640 -0.0407  0.4721
 5993SOL    HW119429   5.521   6.018   5.267  1.7942 -2.7933  1.1845
 5993SOL    HW219430   5.452   5.892   5.316 -2.6027 -0.3694  1.7339
 5994SOL     OW19431   4.204   5.282   0.567  0.1137 -0.1481  0.0074
 5994SOL    HW119432   4.114   5.262   0.595 -0.9966  2.2061 -1.5509
 5994SOL    HW219433   4.217   5.228   0.489 -0.0666 -0.2904  0.0744
 5995SOL     OW19434   6.902   4.396   4.719  0.3407 -0.1621 -0.2643
 5995SOL    HW119435   6.890   4.326   4.783  1.4314  0.7882  1.0209
 5995SOL    HW219436   6.829   4.456   4.735  0.3724 -0.1408 -0.2001
 5996SOL     OW19437   2.024   2.650   3.775  0.4973  0.2848 -0.4123
 5996SOL    HW119438   1.985   2.737   3.780 -0.8665 -0.2921 -0.4164
 5996SOL    HW219439   1.977   2.599   3.840  2.3656 -0.0811  0.7019
 5997SOL     OW19440   1.152   3.887   0.024  0.2320 -0.2017 -0.3883
 5997SOL    HW119441   1.154   3.848   0.112  0.3657  2.8316  1.0726
 5997SOL    HW219442   1.060   3.885  -0.001 -0.0040  0.1551  0.4304
 5998SOL     OW19443   2.459   6.996   6.904 -0.1235  0.1536  0.3692
 5998SOL    HW119444   2.363   6.995   6.896 -0.0484 -1.1175 -0.7538
 5998SOL    HW219445   2.481   6.907   6.933  0.7523  0.2759  0.0872
 5999SOL     OW19446   6.246   0.982   1.365  0.0134 -0.1488  0.0570
 5999SOL    HW119447   6.285   1.046   1.306  1.7147 -1.1633  0.0061
 5999SOL    HW219448   6.187   1.033   1.420 -0.5173  1.0472 -1.5374
 6000SOL     OW19449   6.862   4.727   5.543 -0.0197  0.8044  0.4643
 6000SOL    HW119450   6.953   4.698   5.539 -0.3174 -0.2240  0.8795
 6000SOL    HW219451   6.823   4.692   5.462 -0.2338  0.5602  0.6727
 6001SOL     OW19452   3.579   3.177   0.267  0.2728  0.0603 -0.0933
 6001SOL    HW119453   3.589   3.148   0.176  1.3492  0.7287 -0.2027
 6001SOL    HW219454   3.665   3.209   0.292 -0.6328  2.4681  0.2520
 6002SOL     OW19455   4.700   4.682   2.039  0.0222  0.3298  0.0713
 6002SOL    HW119456   4.688   4.598   2.084  0.7757 -0.1886 -0.6726
 6002SOL    HW219457   4.706   4.746   2.110 -3.0387  0.1403  0.6373
 6003SOL     OW19458   0.785   1.318   5.094 -0.0985  0.0086  0.4388
 6003SOL    HW119459   0.791   1.405   5.054  1.0002 -0.0428  0.4727
 6003SOL    HW219460   0.868   1.276   5.073 -1.5436 -2.0147 -1.8400
 6004SOL     OW19461   5.135   6.661   3.810 -0.1996 -0.2044  0.6497
 6004SOL    HW119462   5.153   6.754   3.798 -0.9703 -0.2766 -1.7021
 6004SOL    HW219463   5.099   6.654   3.898 -2.9888  2.2607 -0.1065
 6005SOL     OW19464   0.700   0.062   4.315  0.2542 -0.1606  0.1777
 6005SOL    HW119465   0.776   0.116   4.294  0.9346 -0.9367  0.6407
 6005SOL    HW219466   0.735  -0.025   4.331 -0.7808 -0.6289 -0.0161
 6006SOL     OW19467   6.474   3.153   3.908 -0.0963  0.0970 -0.4623
 6006SOL    HW119468   6.516   3.160   3.822  2.2475 -1.6222  0.4196
 6006SOL    HW219469   6.421   3.074   3.902 -0.1446  0.1249 -0.4007
 6007SOL     OW19470   6.026   3.190   0.285 -0.5157  0.6213  0.1289
 6007SOL    HW119471   6.013   3.108   0.238  0.0139  0.7435 -0.2296
 6007SOL    HW219472   6.105   3.228   0.247  0.3677  0.3556  1.6324
 6008SOL     OW19473   1.863   6.964   2.598  0.0593  0.1603  0.6972
 6008SOL    HW119474   1.785   6.914   2.577 -1.0069  1.2452  1.8972
 6008SOL    HW219475   1.916   6.904   2.652  0.3741 -0.7886 -0.6234
 6009SOL     OW19476   2.131   5.854   2.817  0.3587  0.0976 -0.7742
 6009SOL    HW119477   2.076   5.870   2.740  1.5885  0.5782 -1.5890
 6009SOL    HW219478   2.209   5.813   2.783  0.3678 -0.9343  0.4183
 6010SOL     OW19479   7.087   5.345   0.817  0.1244 -0.2264  0.2249
 6010SOL    HW119480   7.115   5.436   0.804 -0.3797 -0.1989 -0.7908
 6010SOL    HW219481   7.019   5.331   0.751 -0.8522 -0.8985  1.3339
 6011SOL     OW19482   0.589   6.842   5.242 -0.3674  0.3110  0.0178
 6011SOL    HW119483   0.600   6.766   5.299  0.9772  0.1973 -0.3506
 6011SOL    HW219484   0.519   6.818   5.182 -0.7113 -0.1959  0.6165
 6012SOL     OW19485   0.129   1.252   3.837  0.5908  0.0829  0.1561
 6012SOL    HW119486   0.208   1.298   3.808  0.2871 -0.0308 -0.8825
 6012SOL    HW219487   0.077   1.319   3.882  1.1171  0.2370  0.5466
 6013SOL     OW19488   2.769   4.776   5.788 -0.2957 -0.3527  0.3557
 6013SOL    HW119489   2.780   4.869   5.807  0.1199 -0.5651  1.1694
 6013SOL    HW219490   2.712   4.743   5.858  0.5392 -0.9585  0.7548
 6014SOL     OW19491   3.995   5.992   5.880  0.3124 -0.4268  0.8903
 6014SOL    HW119492   3.932   6.060   5.904  0.8507  0.6261 -0.5527
 6014SOL    HW219493   3.961   5.955   5.799  1.7158  0.4442 -0.1432
 6015SOL     OW19494   1.042   4.864   3.044 -0.0340 -0.2017  0.7738
 6015SOL    HW119495   1.115   4.917   3.075 -0.0515 -0.6863  1.6928
 6015SOL    HW219496   1.034   4.794   3.109  0.4964 -1.7985 -0.8111
 6016SOL     OW19497   6.957   5.278   3.803  0.5385 -0.6278  0.5881
 6016SOL    HW119498   6.897   5.344   3.836  3.0873  2.4575 -0.4262
 6016SOL    HW219499   6.901   5.206   3.774 -2.2701 -0.0228  3.8727
 6017SOL     OW19500   1.851   0.944   3.867 -0.3901  0.3168 -0.1425
 6017SOL    HW119501   1.860   0.887   3.791 -0.4366 -1.0067  0.8204
 6017SOL    HW219502   1.924   1.006   3.858  1.2799 -1.5049  0.1253
 6018SOL     OW19503   1.342   4.955   2.777 -0.2671  0.0718 -0.1021
 6018SOL    HW119504   1.374   5.035   2.819 -0.7402  0.1472  0.1218
 6018SOL    HW219505   1.255   4.942   2.814  0.0174 -0.8511  0.2743
 6019SOL     OW19506   5.616   5.138   2.678 -0.1285 -0.2267 -0.3695
 6019SOL    HW119507   5.597   5.213   2.621 -0.1691  0.2620  0.2790
 6019SOL    HW219508   5.577   5.161   2.762  1.0751 -0.3542  0.2401
 6020SOL     OW19509   6.643   4.770   4.968  0.4905  0.0399 -0.0475
 6020SOL    HW119510   6.549   4.781   4.954  0.1280 -2.6746 -0.1638
 6020SOL    HW219511   6.675   4.732   4.887  1.8058  1.3442 -0.1701
 6021SOL     OW19512   5.823   0.990   3.333  0.4964  0.3567 -0.0821
 6021SOL    HW119513   5.770   0.911   3.321  0.6303  0.1283  0.7640
 6021SOL    HW219514   5.760   1.059   3.354  0.2676  0.7404 -1.8610
 6022SOL     OW19515   2.091   5.802   2.559  0.2494  0.4682  0.7220
 6022SOL    HW119516   2.081   5.707   2.553  0.6520  0.3827  1.2782
 6022SOL    HW219517   2.157   5.823   2.493 -1.1078  0.6088 -0.6477
 6023SOL     OW19518   5.411   0.164   7.113  0.3839  0.1275  0.3517
 6023SOL    HW119519   5.368   0.198   7.034 -0.8058 -1.3945  0.2877
 6023SOL    HW219520   5.497   0.136   7.083 -0.1382 -0.6601 -0.4939
 6024SOL     OW19521   0.446   4.292   3.631 -0.2670  0.3356 -0.1867
 6024SOL    HW119522   0.498   4.222   3.592 -0.8083 -0.1619 -0.0440
 6024SOL    HW219523   0.510   4.348   3.675  0.0906 -0.7392  0.7257
 6025SOL     OW19524   6.151   3.768   6.773 -0.5051 -0.7523 -0.1975
 6025SOL    HW119525   6.236   3.755   6.732 -0.6237 -0.5343 -0.5170
 6025SOL    HW219526   6.166   3.751   6.866  0.2128  0.6755 -0.0270
 6026SOL     OW19527   2.183   3.470   1.584  0.6967  0.2478 -0.0357
 6026SOL    HW119528   2.090   3.494   1.586  0.4898 -0.4571 -0.6321
 6026SOL    HW219529   2.223   3.534   1.526  0.0780 -0.9936 -1.9397
 6027SOL     OW19530   3.045   1.024   4.886  0.2939  0.2761  0.5274
 6027SOL    HW119531   2.983   0.956   4.858 -0.5412  1.1517  0.1850
 6027SOL    HW219532   3.025   1.036   4.979  0.4158  0.0763  0.5791
 6028SOL     OW19533   6.887   0.008   5.134  0.2115  0.0125  0.6464
 6028SOL    HW119534   6.977   0.005   5.166 -0.2580 -0.9566  1.9408
 6028SOL    HW219535   6.854   0.094   5.162  0.3497 -0.1365  1.2874
 6029SOL     OW19536   2.044   3.622   5.078 -0.6994  0.2566 -0.4575
 6029SOL    HW119537   2.107   3.672   5.025 -0.0146  0.5713  0.6218
 6029SOL    HW219538   2.007   3.559   5.016  0.7061  0.0386 -1.1286
 6030SOL     OW19539   4.696   5.759   3.810 -0.1022 -0.1993  0.3639
 6030SOL    HW119540   4.760   5.696   3.779  2.0040  1.2702  1.4285
 6030SOL    HW219541   4.719   5.773   3.902 -2.6165 -0.3274  1.0903
 6031SOL     OW19542   2.024   5.491   5.363 -0.0603  0.2813 -0.3860
 6031SOL    HW119543   2.097   5.449   5.407 -0.3292  1.1949  0.9993
 6031SOL    HW219544   2.003   5.433   5.289 -0.3192 -1.9538  1.3338
 6032SOL     OW19545   1.832   1.294   5.229 -1.0242  0.4384  0.6832
 6032SOL    HW119546   1.829   1.297   5.133 -2.0715 -2.5635  0.5249
 6032SOL    HW219547   1.740   1.296   5.256 -0.7334  1.4749  1.6981
 6033SOL     OW19548   1.147   6.384   3.913 -0.0073 -0.0609 -0.3423
 6033SOL    HW119549   1.237   6.371   3.884  0.3354 -0.5582  0.8619
 6033SOL    HW219550   1.116   6.296   3.935  0.1000  0.3639  1.6847
 6034SOL     OW19551   4.145   0.321   0.094  0.6463  0.1971 -0.2808
 6034SOL    HW119552   4.121   0.413   0.079  0.3671  0.7000  2.6315
 6034SOL    HW219553   4.128   0.278   0.011  0.2903  2.6849 -1.5906
 6035SOL     OW19554   3.233   3.450   4.763  0.0684  0.2042 -0.6221
 6035SOL    HW119555   3.266   3.533   4.795  1.1050 -0.6514  0.6404
 6035SOL    HW219556   3.163   3.426   4.824  1.5407 -1.0675  0.6681
 6036SOL     OW19557   6.409   5.131   3.090  0.4943  0.1914 -0.1011
 6036SOL    HW119558   6.434   5.179   3.011 -2.2623 -0.0339 -1.1974
 6036SOL    HW219559   6.492   5.115   3.135  2.0561  1.1773 -2.4376
 6037SOL     OW19560   2.889   0.062   1.039 -0.2319  0.8877  0.7613
 6037SOL    HW119561   2.900  -0.030   1.060  1.6066  0.8317 -0.2009
 6037SOL    HW219562   2.884   0.106   1.124  2.0321  0.1917  1.3279
 6038SOL     OW19563   6.176   5.932   5.985 -0.2783  0.2900 -0.0670
 6038SOL    HW119564   6.174   6.013   6.035  1.5800 -0.7694  1.8912
 6038SOL    HW219565   6.133   5.868   6.041  0.2068 -0.5384 -0.6114
 6039SOL     OW19566   5.000   1.327   6.313  0.8622  0.4942 -0.3704
 6039SOL    HW119567   5.081   1.276   6.323 -0.0542 -0.6822  1.6837
 6039SOL    HW219568   4.930   1.263   6.319 -0.3120  1.8437  1.1642
 6040SOL     OW19569   5.706   0.931   5.980  0.2018 -0.2349  0.0244
 6040SOL    HW119570   5.630   0.884   5.945  0.5787 -1.0085  0.2119
 6040SOL    HW219571   5.725   0.998   5.914  0.8701 -1.6345 -1.2565
 6041SOL     OW19572   1.065   5.967   5.278 -0.2540 -0.2716  0.7355
 6041SOL    HW119573   1.113   6.012   5.209 -0.1861 -1.6487 -0.1449
 6041SOL    HW219574   1.023   5.893   5.235  0.1977 -1.4654  2.2492
 6042SOL     OW19575   0.579   3.958   1.612  0.3104 -0.5152 -0.2183
 6042SOL    HW119576   0.491   3.993   1.629  1.0281  0.8666  0.7897
 6042SOL    HW219577   0.583   3.878   1.665  0.2768  0.3867  1.1860
 6043SOL     OW19578   3.595   5.429   1.460  0.2672  0.5005  0.8628
 6043SOL    HW119579   3.526   5.448   1.523 -0.4624  1.2684 -0.1319
 6043SOL    HW219580   3.549   5.415   1.377  1.2302 -0.0372  0.4010
 6044SOL     OW19581   6.157   5.338   0.223  0.0713  0.9877 -0.0776
 6044SOL    HW119582   6.175   5.359   0.131  4.8365  2.8902  0.9965
 6044SOL    HW219583   6.088   5.400   0.248 -1.8725 -0.0576 -2.3889
 6045SOL     OW19584   1.001   1.446   0.471 -0.0018 -0.1541 -0.9143
 6045SOL    HW119585   0.966   1.458   0.560  1.3663  2.0593 -0.5840
 6045SOL    HW219586   0.936   1.485   0.414 -0.4985 -0.8352 -0.8242
 6046SOL     OW19587   1.547   4.327   6.153  0.1373 -0.3147 -0.0262
 6046SOL    HW119588   1.553   4.233   6.170 -0.6461 -0.1433  1.3140
 6046SOL    HW219589   1.592   4.339   6.069 -1.1757 -2.1065 -1.0609
 6047SOL     OW19590   6.912   1.739   6.783 -0.8253  0.0958  0.3625
 6047SOL    HW119591   6.935   1.796   6.856  0.1061  0.1654  0.0361
 6047SOL    HW219592   6.987   1.680   6.775 -0.3287  0.8973 -1.3210
 6048SOL     OW19593   6.116   5.699   6.590 -0.4266  0.0575  0.1984
 6048SOL    HW119594   6.173   5.726   6.518  0.9205 -1.0735  0.8061
 6048SOL    HW219595   6.176   5.670   6.659 -1.6689  1.1043  1.8028
 6049SOL     OW19596   0.519   0.174   2.338  0.1063 -0.2213  0.0039
 6049SOL    HW119597   0.598   0.139   2.297  0.7518  0.6034  0.5258
 6049SOL    HW219598   0.489   0.104   2.396  0.9339 -0.2284  0.4350
 6050SOL     OW19599   4.069   1.677   1.391  0.3882 -0.2969  0.2239
 6050SOL    HW119600   4.164   1.665   1.394  0.4370  0.2455  2.3593
 6050SOL    HW219601   4.035   1.593   1.359  1.5357 -0.8882  0.4925
 6051SOL     OW19602   3.893   2.483   5.923  0.0748 -0.0193 -0.7073
 6051SOL    HW119603   3.970   2.510   5.873  0.5651  0.5691  0.3216
 6051SOL    HW219604   3.903   2.527   6.008 -0.0153 -2.0289  0.4025
 6052SOL     OW19605   1.864   4.989   6.015  0.4982 -0.4264  0.2772
 6052SOL    HW119606   1.805   4.958   5.946 -0.4137 -0.2668  0.9622
 6052SOL    HW219607   1.899   4.910   6.055  2.4469 -0.5420 -1.4991
 6053SOL     OW19608   4.880   3.180   7.126 -0.0961  0.1386 -0.1506
 6053SOL    HW119609   4.843   3.200   7.040 -0.4769  0.3747  0.0611
 6053SOL    HW219610   4.909   3.265   7.160 -1.9778  0.4329  0.8699
 6054SOL     OW19611   1.398   4.683   2.565  0.2780  0.3926 -0.0934
 6054SOL    HW119612   1.492   4.696   2.578  0.3467  0.2834 -0.4681
 6054SOL    HW219613   1.368   4.765   2.526  0.2163  0.4333  0.0412
 6055SOL     OW19614   2.977   5.642   5.569 -0.7823  0.0104  0.1928
 6055SOL    HW119615   2.925   5.564   5.553 -1.0408  0.5023 -1.6087
 6055SOL    HW219616   2.981   5.650   5.665 -2.2813 -1.1726  0.3824
 6056SOL     OW19617   4.866   2.873   6.529 -0.5375 -0.6688  0.0966
 6056SOL    HW119618   4.915   2.849   6.451  1.9037  0.1488  1.2819
 6056SOL    HW219619   4.903   2.819   6.599  1.9788  2.9733  1.9214
 6057SOL     OW19620   3.785   2.368   2.765 -0.2704 -0.6143  0.1657
 6057SOL    HW119621   3.722   2.432   2.733 -1.8313 -1.5644  1.2041
 6057SOL    HW219622   3.797   2.391   2.858  0.7074 -0.6239  0.0559
 6058SOL     OW19623   0.388   1.923   0.233  0.0575  0.5921  0.4389
 6058SOL    HW119624   0.387   2.013   0.264 -1.5757  0.0136  2.2090
 6058SOL    HW219625   0.302   1.888   0.256  0.5141 -1.3314 -0.5369
 6059SOL     OW19626   3.700   2.841   5.241  0.0035  0.5186 -0.4393
 6059SOL    HW119627   3.781   2.841   5.292 -0.8354 -0.1975  0.9318
 6059SOL    HW219628   3.703   2.759   5.192  0.2397  0.6433 -0.6410
 6060SOL     OW19629   3.898   1.444   1.297 -0.0605  0.6362 -0.1640
 6060SOL    HW119630   3.822   1.437   1.239 -0.3470  1.1272  0.1386
 6060SOL    HW219631   3.862   1.479   1.379  0.3359 -0.0363  0.3104
 6061SOL     OW19632   6.338   3.651   3.059 -0.3975  0.2251 -0.8638
 6061SOL    HW119633   6.352   3.569   3.106  0.6002  0.8151 -0.0981
 6061SOL    HW219634   6.414   3.658   3.001 -0.6440  0.4578 -1.1614
 6062SOL     OW19635   6.367   4.856   2.791  0.0490  0.0535  0.1027
 6062SOL    HW119636   6.390   4.811   2.872  0.0688 -0.9416 -0.4371
 6062SOL    HW219637   6.440   4.839   2.732  1.0708  2.5626  0.5129
 6063SOL     OW19638   1.203   6.615   5.251 -0.2628 -0.5892  0.3331
 6063SOL    HW119639   1.275   6.590   5.309 -0.1460 -0.2537  0.3396
 6063SOL    HW219640   1.218   6.566   5.171  0.1489 -0.2856  0.2238
 6064SOL     OW19641   1.939   4.175   6.937 -0.1957 -0.0498  0.2768
 6064SOL    HW119642   1.962   4.088   6.903  0.2216  0.3203 -0.4109
 6064SOL    HW219643   1.942   4.165   7.032  1.1776 -0.4527  0.2145
 6065SOL     OW19644   4.438   0.965   3.365 -0.2592  0.5571  0.3145
 6065SOL    HW119645   4.457   0.910   3.441  2.4298 -1.4996 -1.6212
 6065SOL    HW219646   4.346   0.989   3.374 -1.1904 -3.0472  2.1299
 6066SOL     OW19647   2.540   1.305   3.389 -0.5886 -0.0922 -0.6260
 6066SOL    HW119648   2.447   1.323   3.376 -0.3834  0.5940 -1.1701
 6066SOL    HW219649   2.572   1.281   3.302  0.6696  3.9754 -1.4962
 6067SOL     OW19650   3.395   3.493   6.495 -0.5048 -0.0767  0.0814
 6067SOL    HW119651   3.317   3.508   6.441 -0.1889  0.9579 -0.1080
 6067SOL    HW219652   3.366   3.512   6.584 -0.7411 -0.7310  0.1502
 6068SOL     OW19653   6.011   4.445   4.947 -0.0944  0.2032 -0.9931
 6068SOL    HW119654   5.968   4.371   4.990  0.6700 -0.5266 -1.4683
 6068SOL    HW219655   6.030   4.415   4.859  2.1219  0.1840 -0.5768
 6069SOL     OW19656   4.525   7.028   6.059 -0.5388  0.2767 -0.5409
 6069SOL    HW119657   4.561   7.115   6.045  0.6158  0.0328  0.6850
 6069SOL    HW219658   4.588   6.969   6.017  0.4955 -0.1463  1.4795
 6070SOL     OW19659   1.542   6.012   3.075 -0.2765 -0.2501 -0.1923
 6070SOL    HW119660   1.564   5.978   3.162 -0.0817  0.0168 -0.1364
 6070SOL    HW219661   1.540   6.107   3.087  0.4249 -0.1761 -0.6343
 6071SOL     OW19662   7.048   6.637   5.222  0.9305 -0.3383 -0.6219
 6071SOL    HW119663   6.953   6.631   5.213  0.7694 -1.5934  1.2762
 6071SOL    HW219664   7.068   6.730   5.211 -0.9980  0.6117  2.4453
 6072SOL     OW19665   4.959   4.014   0.888  0.5523  0.5052 -0.2104
 6072SOL    HW119666   5.000   4.078   0.829  0.2329 -0.2617 -1.2858
 6072SOL    HW219667   4.926   4.067   0.961  1.4700  1.4031 -0.4183
 6073SOL     OW19668   0.072   3.850   4.470  0.5106 -0.5887  0.8077
 6073SOL    HW119669   0.116   3.893   4.396 -1.5114 -0.6233 -0.4826
 6073SOL    HW219670   0.079   3.912   4.542  1.4773 -0.0327  0.2502
 6074SOL     OW19671   3.387   1.912   2.031  0.9465  0.5349  0.0883
 6074SOL    HW119672   3.338   1.835   2.062  1.3886 -0.6429 -1.9649
 6074SOL    HW219673   3.322   1.964   1.983  0.7223  1.3273  1.2081
 6075SOL     OW19674   2.711   2.176   2.688  0.3763 -0.2862 -0.1088
 6075SOL    HW119675   2.776   2.171   2.618  2.3879  1.1474  1.5304
 6075SOL    HW219676   2.671   2.262   2.679 -3.3168 -1.9768 -2.5934
 6076SOL     OW19677   4.665   0.104   4.333  0.1431  0.1207  0.0180
 6076SOL    HW119678   4.688   0.176   4.391  1.4764 -0.7558  0.6466
 6076SOL    HW219679   4.699   0.026   4.378 -1.9640 -1.0228 -0.2166
 6077SOL     OW19680   1.363   1.576   3.229 -0.4308  0.2450  0.0153
 6077SOL    HW119681   1.291   1.619   3.183 -0.3019 -0.6338 -1.0553
 6077SOL    HW219682   1.441   1.598   3.177 -0.3136 -0.9305 -0.3474
 6078SOL     OW19683   6.729   3.650   5.452  0.3718  0.6728  0.0442
 6078SOL    HW119684   6.813   3.664   5.498  0.5454  0.7295 -0.2878
 6078SOL    HW219685   6.713   3.556   5.460  1.0087  0.4773 -0.8089
 6079SOL     OW19686   6.010   5.948   3.848 -0.2029 -0.5258 -0.2219
 6079SOL    HW119687   5.935   5.904   3.808 -1.3122  0.3815  0.8133
 6079SOL    HW219688   5.974   5.996   3.922  1.6311 -1.3289  1.2864
 6080SOL     OW19689   4.140   4.605   6.793 -0.3505  0.0263  0.1132
 6080SOL    HW119690   4.189   4.687   6.804 -1.3484  0.6872 -0.2288
 6080SOL    HW219691   4.171   4.549   6.864 -2.9143  2.3140  3.3508
 6081SOL     OW19692   6.512   3.054   1.174  0.2016  0.3462 -0.5809
 6081SOL    HW119693   6.458   3.133   1.182  0.5934  0.5833 -0.2368
 6081SOL    HW219694   6.457   2.993   1.125 -2.0767 -0.8797  3.0343
 6082SOL     OW19695   4.368   5.971   0.416  0.4834  0.1958 -0.4249
 6082SOL    HW119696   4.333   5.947   0.330  1.4019 -0.5400 -0.6184
 6082SOL    HW219697   4.291   5.977   0.473 -0.0714 -0.0304 -1.1317
 6083SOL     OW19698   2.037   2.580   0.505  0.3851  0.6550 -0.1146
 6083SOL    HW119699   2.025   2.518   0.433 -0.9174  0.9169 -0.1450
 6083SOL    HW219700   2.015   2.665   0.467 -0.1507  0.8152  0.5392
 6084SOL     OW19701   2.806   2.000   0.446  0.6496 -0.1943  1.3683
 6084SOL    HW119702   2.776   1.985   0.356 -1.7819  1.3027  1.8342
 6084SOL    HW219703   2.769   1.926   0.495  0.2170  0.0668  1.4455
 6085SOL     OW19704   1.253   2.122   6.940 -0.3437  0.4215 -0.1478
 6085SOL    HW119705   1.244   2.131   6.845 -0.5498 -0.2482 -0.1984
 6085SOL    HW219706   1.188   2.182   6.976  0.8553  1.9174 -0.3948
 6086SOL     OW19707   6.038   6.541   5.503  0.1932 -0.3405  0.1148
 6086SOL    HW119708   6.089   6.570   5.427  0.3734  0.2035  0.4369
 6086SOL    HW219709   6.091   6.566   5.578 -2.0416  3.5155  0.6592
 6087SOL     OW19710   2.526   4.743   6.779 -0.5069 -0.1328  0.4013
 6087SOL    HW119711   2.484   4.658   6.767  0.7147 -0.6720 -0.2868
 6087SOL    HW219712   2.620   4.724   6.772 -0.1458  1.0555  1.6417
 6088SOL     OW19713   2.929   5.049   4.049  0.4414 -0.4047 -0.4061
 6088SOL    HW119714   2.846   5.013   4.017 -0.4124 -1.2681  2.4540
 6088SOL    HW219715   2.974   4.974   4.089  0.9045  0.7265  1.3064
 6089SOL     OW19716   6.378   4.656   0.246 -0.4812  0.6072  0.6044
 6089SOL    HW119717   6.372   4.739   0.198 -0.1884  1.2068  1.5745
 6089SOL    HW219718   6.287   4.630   0.262 -0.6025  1.6452  1.7785
 6090SOL     OW19719   1.614   3.947   4.499  0.0480  0.5876 -0.6376
 6090SOL    HW119720   1.635   3.854   4.487  0.6970  0.8376 -1.6011
 6090SOL    HW219721   1.650   3.968   4.586 -1.4813 -0.4119  0.2797
 6091SOL     OW19722   7.122   6.919   5.165 -0.4974 -0.5728 -0.1786
 6091SOL    HW119723   7.135   6.959   5.079  1.6158 -1.5561 -0.3905
 6091SOL    HW219724   7.205   6.933   5.211 -1.4540 -0.3971  1.5827
 6092SOL     OW19725   2.059   0.027   1.470  0.2079 -0.2044 -0.2998
 6092SOL    HW119726   2.015  -0.033   1.409 -1.8453  0.1505  0.7216
 6092SOL    HW219727   2.062   0.111   1.423 -0.9211 -0.0542 -0.1380
 6093SOL     OW19728   2.505   3.311   5.074  0.7922  0.6275  0.3033
 6093SOL    HW119729   2.567   3.370   5.031  1.1691 -0.2832 -0.4532
 6093SOL    HW219730   2.467   3.363   5.145  0.8527  1.8891 -0.5471
 6094SOL     OW19731   3.620   1.688   4.137 -0.2480  0.4840  0.2642
 6094SOL    HW119732   3.652   1.725   4.219 -0.7055  0.9717  0.2277
 6094SOL    HW219733   3.671   1.732   4.069  1.1048 -0.9046  0.3250
 6095SOL     OW19734   4.668   5.433   0.311  0.3465 -0.1661  0.1346
 6095SOL    HW119735   4.573   5.428   0.312  0.4094 -1.8913  1.2408
 6095SOL    HW219736   4.687   5.525   0.327 -1.1282  0.2283 -0.2507
 6096SOL     OW19737   6.345   4.633   3.384 -0.2571  0.1747 -0.0193
 6096SOL    HW119738   6.283   4.694   3.425  0.1401  1.0027 -0.6083
 6096SOL    HW219739   6.399   4.689   3.327 -0.9693 -0.9553 -1.9015
 6097SOL     OW19740   7.040   3.147   6.899 -0.2380 -0.3174 -0.2205
 6097SOL    HW119741   7.001   3.084   6.959  0.9304  0.2420  1.1957
 6097SOL    HW219742   6.967   3.200   6.868 -1.0557 -1.5616 -0.4644
 6098SOL     OW19743   5.392   2.794   2.304 -0.7001 -0.0207 -0.2148
 6098SOL    HW119744   5.426   2.747   2.228  0.0546 -0.0468  0.1277
 6098SOL    HW219745   5.401   2.887   2.281 -0.0866 -0.0226 -0.0004
 6099SOL     OW19746   2.168   2.696   2.342 -0.1911  0.4337  0.0393
 6099SOL    HW119747   2.174   2.614   2.294  2.0159  0.3283  0.3921
 6099SOL    HW219748   2.138   2.671   2.430 -1.1449  0.2458 -0.3255
 6100SOL     OW19749   6.958   5.988   6.782 -0.3084  0.1628 -0.1531
 6100SOL    HW119750   7.036   6.011   6.832  0.2122  0.9446 -1.2847
 6100SOL    HW219751   6.957   5.893   6.782 -0.1306  0.1480  1.0375
 6101SOL     OW19752   5.939   5.067   4.112  0.5492  0.1416 -0.3451
 6101SOL    HW119753   5.978   5.138   4.162 -0.7179  0.2455  0.5342
 6101SOL    HW219754   5.996   4.992   4.130 -0.3807 -0.0799  2.1112
 6102SOL     OW19755   1.934   7.002   1.304 -0.2950 -0.5325  0.2001
 6102SOL    HW119756   1.879   7.068   1.261 -0.3905 -0.2427  0.7669
 6102SOL    HW219757   1.992   6.971   1.234 -0.4039 -0.0149 -0.1277
 6103SOL     OW19758   3.829   4.859   6.419 -0.6307 -0.6268 -0.1389
 6103SOL    HW119759   3.924   4.868   6.427 -0.7306  1.1134 -0.4816
 6103SOL    HW219760   3.812   4.867   6.325 -1.2900  1.5076  0.1226
 6104SOL     OW19761   1.531   6.863   4.385  0.6128 -0.3170  0.0461
 6104SOL    HW119762   1.573   6.787   4.345  1.7695  0.7281 -0.7864
 6104SOL    HW219763   1.597   6.932   4.382 -1.0301  1.3078 -1.0775
 6105SOL     OW19764   1.873   3.692   1.244 -0.1169 -0.1799 -0.3088
 6105SOL    HW119765   1.941   3.698   1.177  0.5108 -0.5353  0.2911
 6105SOL    HW219766   1.832   3.779   1.245  2.7537  1.3110  1.8759
 6106SOL     OW19767   1.773   6.138   4.553 -0.4912  0.3810  0.7789
 6106SOL    HW119768   1.840   6.198   4.586 -0.6521 -0.3828  2.5721
 6106SOL    HW219769   1.808   6.051   4.570 -0.8033 -0.0564 -0.6929
 6107SOL     OW19770   0.828   6.156   0.947  0.0201  0.3463 -0.4377
 6107SOL    HW119771   0.733   6.151   0.934  0.1107 -1.8105 -0.7990
 6107SOL    HW219772   0.857   6.225   0.887 -1.0315 -0.9345 -2.5628
 6108SOL     OW19773   3.206   0.263   4.321 -0.0935 -0.0431  0.0905
 6108SOL    HW119774   3.283   0.220   4.285  1.4528  0.2907  2.7395
 6108SOL    HW219775   3.132   0.209   4.293  1.5127 -2.9581  1.0767
 6109SOL     OW19776   2.613   6.977   6.271  0.0710 -0.8101  0.0370
 6109SOL    HW119777   2.583   6.925   6.345 -0.2285 -0.5362  0.1101
 6109SOL    HW219778   2.550   7.049   6.265  0.4804 -0.4543 -0.0589
 6110SOL     OW19779   2.476   1.063   3.231 -0.0018 -0.6468  0.1706
 6110SOL    HW119780   2.404   1.123   3.251  0.2522  0.0515 -0.8971
 6110SOL    HW219781   2.434   0.992   3.180 -0.0658 -0.6544  0.2332
 6111SOL     OW19782   6.024   4.030   6.345  0.1908 -0.5445  0.3642
 6111SOL    HW119783   5.935   4.062   6.354 -0.3573 -2.3471  1.9276
 6111SOL    HW219784   6.078   4.098   6.385 -0.5955  0.0016  0.5120
 6112SOL     OW19785   3.434   6.583   2.313  0.2952 -0.1394 -0.0189
 6112SOL    HW119786   3.396   6.570   2.399  0.3313  0.4071  0.0865
 6112SOL    HW219787   3.361   6.569   2.252 -0.4342  2.0928  0.2354
 6113SOL     OW19788   5.053   1.722   5.937  0.5542 -0.1484 -0.3296
 6113SOL    HW119789   5.032   1.754   6.024 -0.5505  0.3346 -0.7520
 6113SOL    HW219790   5.149   1.713   5.936  0.4927 -1.4863  1.3634
 6114SOL     OW19791   6.563   1.927   5.535  0.6481  0.2437 -0.1936
 6114SOL    HW119792   6.577   1.925   5.440 -0.4134 -0.2458 -0.3672
 6114SOL    HW219793   6.584   1.839   5.564  1.1761  0.4541  0.0588
 6115SOL     OW19794   4.707   2.037   6.793  0.1411 -0.4097 -0.0082
 6115SOL    HW119795   4.747   1.970   6.736 -0.4338 -0.4925 -0.3253
 6115SOL    HW219796   4.693   1.992   6.876 -2.5053 -1.4799 -0.9419
 6116SOL     OW19797   5.282   0.590   3.923  0.0178  0.7552 -0.6559
 6116SOL    HW119798   5.209   0.562   3.868  0.0871  1.3543 -1.0682
 6116SOL    HW219799   5.320   0.664   3.876  0.5313  0.8153 -0.1559
 6117SOL     OW19800   2.548   6.051   3.267  0.2172  0.8427 -0.1615
 6117SOL    HW119801   2.572   6.139   3.296  2.8812 -0.3257  1.5783
 6117SOL    HW219802   2.622   6.022   3.214 -0.7262 -0.2929 -0.9160
 6118SOL     OW19803   4.009   4.340   1.726 -0.5090 -0.3274  0.3753
 6118SOL    HW119804   4.064   4.323   1.649 -2.3061 -3.8109 -0.3439
 6118SOL    HW219805   3.999   4.254   1.767 -3.6020  0.5427  1.7060
 6119SOL     OW19806   5.785   0.434   5.375 -0.4168 -0.1353  0.4338
 6119SOL    HW119807   5.747   0.373   5.439 -3.3440 -0.1394 -1.1493
 6119SOL    HW219808   5.812   0.378   5.302 -0.5377  0.1943  0.1347
 6120SOL     OW19809   5.925   3.885   5.373 -0.5764  0.8298 -0.2071
 6120SOL    HW119810   5.883   3.942   5.437 -0.7088  0.4212  0.0735
 6120SOL    HW219811   6.014   3.874   5.406  0.4112  3.2169 -1.7660
 6121SOL     OW19812   2.831   2.008   5.317  0.3470  0.0437  0.8456
 6121SOL    HW119813   2.899   1.945   5.342 -1.5660 -1.6831  2.0447
 6121SOL    HW219814   2.820   2.063   5.395  0.6946  0.6293  0.4825
 6122SOL     OW19815   0.358   3.283   2.200  0.2756  0.3882 -0.1187
 6122SOL    HW119816   0.390   3.198   2.230 -0.5484  0.1898  0.2421
 6122SOL    HW219817   0.348   3.273   2.106  0.6355  0.2452 -0.1450
 6123SOL     OW19818   0.978   3.582   2.988  0.1204 -0.1985 -0.1941
 6123SOL    HW119819   0.929   3.511   2.945 -0.3647 -0.2207  0.3781
 6123SOL    HW219820   1.070   3.561   2.972 -0.0417  0.2508 -1.9622
 6124SOL     OW19821   5.026   6.317   3.708 -0.8944  0.1382  0.4807
 6124SOL    HW119822   4.990   6.255   3.644 -0.0445  1.2890 -1.1804
 6124SOL    HW219823   4.959   6.384   3.718 -0.5388  0.6091 -0.1873
 6125SOL     OW19824   3.042   6.297   2.582  0.5236  0.5659 -0.1882
 6125SOL    HW119825   3.046   6.329   2.492 -2.5093 -1.7381 -1.3277
 6125SOL    HW219826   2.991   6.363   2.630 -0.5427  0.3712 -1.0079
 6126SOL     OW19827   5.088   0.019   5.828 -0.3616  0.0999 -0.4405
 6126SOL    HW119828   5.040   0.032   5.910 -0.5179 -0.4731 -0.4368
 6126SOL    HW219829   5.180   0.025   5.853 -0.4217  0.8044 -0.3775
 6127SOL     OW19830   1.599   6.328   2.361  0.0319  0.1557  0.1742
 6127SOL    HW119831   1.689   6.307   2.385  0.1929  0.6077 -0.0187
 6127SOL    HW219832   1.586   6.417   2.392  0.1688  0.6749 -1.1790
 6128SOL     OW19833   4.323   0.403   4.901 -0.0955 -0.3690 -0.1607
 6128SOL    HW119834   4.348   0.424   4.990 -1.4562  0.3555  0.0769
 6128SOL    HW219835   4.247   0.458   4.883 -0.8703 -1.6826 -1.1816
 6129SOL     OW19836   3.341   4.258   3.904 -0.1236 -0.3551  0.0098
 6129SOL    HW119837   3.294   4.290   3.828  0.0389 -1.4222 -0.5597
 6129SOL    HW219838   3.296   4.177   3.928  0.2251 -0.3693  0.6531
 6130SOL     OW19839   0.019   0.794   0.136  0.1747  0.0068 -0.1707
 6130SOL    HW119840  -0.017   0.794   0.048  1.2259 -2.4805 -0.6785
 6130SOL    HW219841   0.025   0.887   0.160 -4.3895  0.6736 -0.8321
 6131SOL     OW19842   5.469   3.735   4.269  0.5054  0.2590 -0.6434
 6131SOL    HW119843   5.425   3.692   4.343  1.5509 -0.4659 -0.4106
 6131SOL    HW219844   5.398   3.767   4.214 -0.3382 -1.3738 -0.5774
 6132SOL     OW19845   3.319   5.909   6.179  0.6414  0.1969  0.7960
 6132SOL    HW119846   3.298   5.822   6.212 -0.5188  0.3076  0.4059
 6132SOL    HW219847   3.237   5.941   6.141  1.1516  1.2957  0.5634
 6133SOL     OW19848   4.748   1.758   5.219  0.1204  0.6341  0.5659
 6133SOL    HW119849   4.816   1.738   5.284  0.6045  1.0875  0.2025
 6133SOL    HW219850   4.691   1.820   5.264 -1.5971 -1.7139  1.8318
 6134SOL     OW19851   4.572   2.561   6.256 -0.1924  0.4202 -0.6552
 6134SOL    HW119852   4.636   2.572   6.327 -1.7937  0.3725  0.8481
 6134SOL    HW219853   4.570   2.466   6.241 -0.6380  0.3157  0.0135
 6135SOL     OW19854   5.869   0.476   1.809 -0.3871 -0.7569  0.4024
 6135SOL    HW119855   5.951   0.517   1.783 -0.2404 -0.6652  0.9859
 6135SOL    HW219856   5.803   0.516   1.752 -0.1517 -0.1940  0.5140
 6136SOL     OW19857   0.000   4.651   6.982  0.1687  0.3881  0.4004
 6136SOL    HW119858  -0.026   4.713   7.050 -0.8201 -0.5995  0.9512
 6136SOL    HW219859  -0.013   4.565   7.021 -0.6621 -0.2156 -1.1124
 6137SOL     OW19860   0.466   4.597   4.424  0.0559  0.4680  0.4141
 6137SOL    HW119861   0.415   4.530   4.381 -0.3475  0.1783  1.3241
 6137SOL    HW219862   0.429   4.680   4.394 -1.7595  0.2707  1.9597
 6138SOL     OW19863   6.735   2.317   5.562  0.1241  0.5435  0.5706
 6138SOL    HW119864   6.814   2.264   5.559  0.1845  0.6386 -1.6131
 6138SOL    HW219865   6.750   2.386   5.497 -1.7077  0.5828  0.1184
 6139SOL     OW19866   2.820   0.376   3.798  0.1592  0.1424 -0.7677
 6139SOL    HW119867   2.843   0.347   3.710 -1.9393  0.6665 -1.5495
 6139SOL    HW219868   2.870   0.318   3.856 -0.6949 -2.2607 -2.2771
 6140SOL     OW19869   6.397   0.603   5.561 -0.0591  0.0104 -0.3371
 6140SOL    HW119870   6.314   0.579   5.603  1.6747 -1.4089  2.5478
 6140SOL    HW219871   6.426   0.522   5.519  1.5272 -0.6177  1.8002
 6141SOL     OW19872   0.892   3.083   1.096 -0.2140 -0.1208 -0.0042
 6141SOL    HW119873   0.968   3.072   1.038  1.1383 -0.0271  1.6765
 6141SOL    HW219874   0.860   3.171   1.076  0.9528  0.3636  0.1660
 6142SOL     OW19875   4.297   6.610   4.819 -0.0303  0.2759 -0.6578
 6142SOL    HW119876   4.334   6.523   4.826 -0.1474  0.3522  2.0381
 6142SOL    HW219877   4.358   6.658   4.763  0.2292 -1.3963 -1.8731
 6143SOL     OW19878   4.436   5.013   5.821  0.0317  0.6519  0.5987
 6143SOL    HW119879   4.450   4.932   5.771 -0.5440  1.6486 -1.2809
 6143SOL    HW219880   4.500   5.074   5.786 -0.0780  1.2510  1.4272
 6144SOL     OW19881   3.398   1.545   5.652  0.2065 -0.1975 -0.4964
 6144SOL    HW119882   3.357   1.490   5.718 -0.0193  1.0459  0.4145
 6144SOL    HW219883   3.332   1.555   5.584 -0.2726  0.1419  0.0193
 6145SOL     OW19884   4.179   5.102   3.262  0.3386  0.3174  0.0091
 6145SOL    HW119885   4.134   5.125   3.343  0.8071  0.0183  0.3623
 6145SOL    HW219886   4.193   5.008   3.269  1.2121  0.4366  0.0137
 6146SOL     OW19887   0.149   3.211   6.208 -0.0425  0.3621 -0.2167
 6146SOL    HW119888   0.131   3.176   6.121 -0.2993  0.3947 -0.1768
 6146SOL    HW219889   0.066   3.207   6.254 -0.1894  1.4125 -0.3488
 6147SOL     OW19890   5.358   1.838   6.419 -0.2301  0.4074  0.4343
 6147SOL    HW119891   5.285   1.901   6.417 -0.8287 -0.2524  0.9756
 6147SOL    HW219892   5.388   1.834   6.328 -1.1706  0.3583  0.1112
 6148SOL     OW19893   1.690   2.047   3.641  0.1632 -0.3740  0.2795
 6148SOL    HW119894   1.608   2.096   3.636 -0.4372 -1.1198  2.0726
 6148SOL    HW219895   1.670   1.973   3.698  1.7263 -1.3443 -0.3737
 6149SOL     OW19896   0.256   1.634   0.500 -0.4058 -0.3365  0.1813
 6149SOL    HW119897   0.244   1.559   0.558 -1.8813 -1.2678 -1.2384
 6149SOL    HW219898   0.170   1.676   0.498 -0.1503  0.1643 -0.6558
 6150SOL     OW19899   2.037   6.484   3.327 -0.5049  0.3250  0.7751
 6150SOL    HW119900   1.956   6.501   3.278  1.2121  1.3086 -1.9375
 6150SOL    HW219901   2.070   6.572   3.348  1.7844  0.1777 -1.7024
 6151SOL     OW19902   2.904   2.040   6.815  0.1843 -0.3813 -0.5137
 6151SOL    HW119903   2.944   2.123   6.790 -0.3441  0.1369  0.3153
 6151SOL    HW219904   2.816   2.044   6.779  0.4548 -0.9800 -1.2546
 6152SOL     OW19905   2.070   4.927   2.773  0.2860  0.5622  0.2901
 6152SOL    HW119906   1.982   4.904   2.745  1.4383 -0.9230 -2.5449
 6152SOL    HW219907   2.071   4.909   2.867 -2.4625  0.8982  0.4522
 6153SOL     OW19908   6.291   2.578   0.887 -0.4371  0.0842 -0.0630
 6153SOL    HW119909   6.200   2.580   0.916 -0.9584 -0.7121 -1.5254
 6153SOL    HW219910   6.294   2.637   0.812  0.5848  1.1314  0.7517
 6154SOL     OW19911   6.432   6.050   2.859 -0.4217 -0.2649  0.1369
 6154SOL    HW119912   6.462   6.031   2.769 -1.2275 -1.9953  0.1828
 6154SOL    HW219913   6.374   5.977   2.880  1.0649 -0.8342  2.6920
 6155SOL     OW19914   6.944   7.004   3.583 -0.3233 -0.0011 -0.1850
 6155SOL    HW119915   7.011   7.072   3.590 -0.6709  0.2314  1.1588
 6155SOL    HW219916   6.861   7.051   3.591 -0.5577 -0.6320  1.7894
 6156SOL     OW19917   5.208   5.189   3.740  0.5202  0.9894 -0.4867
 6156SOL    HW119918   5.229   5.254   3.806  0.2074  2.5776 -1.8802
 6156SOL    HW219919   5.112   5.186   3.738  0.5267  0.0925 -0.0902
 6157SOL     OW19920   1.460   0.917   0.480  0.3013 -0.2058  0.5641
 6157SOL    HW119921   1.529   0.983   0.488 -0.1922  0.4757 -0.5859
 6157SOL    HW219922   1.396   0.957   0.421 -0.3527 -1.4390  0.4178
 6158SOL     OW19923   4.980   2.896   2.467  0.1185 -0.3620  0.4116
 6158SOL    HW119924   5.067   2.919   2.434 -0.3627  1.1401  0.0951
 6158SOL    HW219925   4.987   2.906   2.562  0.4783 -0.9686  0.4539
 6159SOL     OW19926   6.799   6.461   1.580 -0.2110 -0.0133  0.2042
 6159SOL    HW119927   6.726   6.400   1.576 -0.4951  0.3539 -0.4407
 6159SOL    HW219928   6.785   6.511   1.660  0.1866 -0.9717  0.8912
 6160SOL     OW19929   2.707   6.960   0.007  0.1795  0.6321  0.1366
 6160SOL    HW119930   2.630   6.932   0.056  0.6730  0.4132  0.8097
 6160SOL    HW219931   2.762   6.882   0.003  0.2347  0.7036 -0.6003
 6161SOL     OW19932   1.446   0.487   1.511 -0.1361 -0.2345  0.4136
 6161SOL    HW119933   1.505   0.454   1.443 -0.7801  1.2320 -0.9120
 6161SOL    HW219934   1.371   0.426   1.508 -0.4176  0.1394 -0.6146
 6162SOL     OW19935   2.033   1.348   2.245 -0.1016 -0.1521  0.2778
 6162SOL    HW119936   2.083   1.425   2.218  2.3574 -1.1919  1.5462
 6162SOL    HW219937   2.017   1.361   2.339  1.5893 -1.7469  0.8403
 6163SOL     OW19938   4.268   4.860   4.671 -0.2318  0.1056 -0.4489
 6163SOL    HW119939   4.207   4.859   4.745  2.6148  2.8791  2.2411
 6163SOL    HW219940   4.307   4.773   4.672  1.0106  0.5439  2.6903
 6164SOL     OW19941   0.125   3.018   2.328 -0.1737 -0.3834 -0.0671
 6164SOL    HW119942   0.108   3.111   2.346  0.6561 -0.1289 -0.5498
 6164SOL    HW219943   0.047   2.973   2.360 -0.4999  0.4604  0.3587
 6165SOL     OW19944   0.169   6.454   1.751 -0.1646 -0.1950  0.2639
 6165SOL    HW119945   0.175   6.546   1.778 -0.9342 -0.0391 -0.0852
 6165SOL    HW219946   0.079   6.443   1.722 -0.0236 -1.0152  0.1127
 6166SOL     OW19947   1.461   1.214   0.821  0.1624  0.2521  0.7979
 6166SOL    HW119948   1.379   1.166   0.806 -0.7467  1.7617  0.7183
 6166SOL    HW219949   1.507   1.210   0.737 -0.9201  1.3463  0.1250
 6167SOL     OW19950   6.771   6.754   0.657  0.0348 -0.0196  0.7830
 6167SOL    HW119951   6.745   6.718   0.572 -1.0298  0.9655  0.6741
 6167SOL    HW219952   6.762   6.849   0.647  1.4238  0.2177  1.5122
 6168SOL     OW19953   3.371   1.649   2.318 -0.5487  0.5125 -0.3659
 6168SOL    HW119954   3.333   1.737   2.311 -1.9733 -0.0405  0.0590
 6168SOL    HW219955   3.296   1.590   2.310  0.2662 -0.6491  0.2639
 6169SOL     OW19956   6.818   6.268   5.019 -0.3525  0.4632  0.3874
 6169SOL    HW119957   6.882   6.263   5.090  0.2825 -0.8765 -0.2459
 6169SOL    HW219958   6.756   6.198   5.039 -1.0077  1.0377  0.3939
 6170SOL     OW19959   0.764   6.174   7.012  0.2423  0.0944  0.7021
 6170SOL    HW119960   0.678   6.210   7.033  0.8532  1.6405  0.6726
 6170SOL    HW219961   0.745   6.100   6.954 -1.0260  0.8956  0.0439
 6171SOL     OW19962   3.328   4.354   6.851  0.1635 -0.2180 -0.8427
 6171SOL    HW119963   3.353   4.430   6.799  0.3065  0.6722  0.4863
 6171SOL    HW219964   3.411   4.312   6.874  0.0639 -1.2132 -2.1354
 6172SOL     OW19965   4.405   5.085   4.742 -0.5227  0.0602  0.7896
 6172SOL    HW119966   4.379   4.997   4.713 -0.2156 -0.0128  0.7237
 6172SOL    HW219967   4.428   5.131   4.661 -1.4975  0.4822  0.7445
 6173SOL     OW19968   1.730   2.037   0.634 -0.1447  0.5096  0.0598
 6173SOL    HW119969   1.816   2.070   0.656 -1.0475  2.3246  1.0615
 6173SOL    HW219970   1.693   2.102   0.574 -0.9451 -0.0790 -0.1163
 6174SOL     OW19971   0.122   6.139   2.525 -0.4609  0.3224 -0.6210
 6174SOL    HW119972   0.040   6.175   2.490 -1.0323  1.4130  1.6759
 6174SOL    HW219973   0.175   6.216   2.545 -0.6265 -0.1391  1.8913
 6175SOL     OW19974   1.386   6.792   2.371 -0.3772 -0.0788 -0.3891
 6175SOL    HW119975   1.399   6.873   2.322 -1.6549 -0.4307 -1.3593
 6175SOL    HW219976   1.301   6.803   2.415 -1.3911 -1.4925 -1.8679
 6176SOL     OW19977   4.757   4.068   2.401  0.2207 -0.4022  0.1227
 6176SOL    HW119978   4.770   4.061   2.495 -1.5684  3.1020  0.8126
 6176SOL    HW219979   4.841   4.099   2.367 -0.0367  1.5416  1.1504
 6177SOL     OW19980   4.874   4.378   2.977 -0.1320 -0.4491  0.7590
 6177SOL    HW119981   4.856   4.285   2.994 -0.9090 -0.4909 -0.2262
 6177SOL    HW219982   4.922   4.378   2.894 -0.8140  0.0784  0.3607
 6178SOL     OW19983   4.160   5.092   5.833  0.9378  0.0654 -0.2393
 6178SOL    HW119984   4.252   5.067   5.842  0.5968 -0.9900  0.4399
 6178SOL    HW219985   4.151   5.116   5.740  1.7146 -0.6036 -0.5036
 6179SOL     OW19986   2.415   0.192   3.311  0.3182 -0.1953  0.3627
 6179SOL    HW119987   2.398   0.187   3.405 -0.2956 -0.7904  0.2291
 6179SOL    HW219988   2.341   0.147   3.270  1.4600 -1.5503 -0.3208
 6180SOL     OW19989   6.843   4.498   6.899  0.1067  0.1355 -0.6806
 6180SOL    HW119990   6.785   4.551   6.955  0.4919  2.3757 -2.2544
 6180SOL    HW219991   6.915   4.474   6.957 -0.1659  1.2393  0.1639
 6181SOL     OW19992   1.212   2.845   5.813 -0.8711  0.2287 -0.2302
 6181SOL    HW119993   1.272   2.871   5.743  0.8195 -0.7841  0.7607
 6181SOL    HW219994   1.130   2.891   5.794 -0.1909  0.6420 -2.3638
 6182SOL     OW19995   2.359   0.923   2.627  0.2435 -0.6244  0.2388
 6182SOL    HW119996   2.272   0.943   2.661  0.3594  4.0712 -1.4028
 6182SOL    HW219997   2.343   0.867   2.551 -1.1030 -1.4891  1.1244
 6183SOL     OW19998   1.414   3.517   1.713  0.0025  0.3566 -0.2514
 6183SOL    HW119999   1.465   3.567   1.649  1.2173 -0.1899  0.2481
 6183SOL    HW220000   1.391   3.582   1.780  1.5017  0.3175  0.3532
 6184SOL     OW20001   1.088   4.904   2.564  0.5097  0.1423 -0.1070
 6184SOL    HW120002   1.112   4.989   2.601  2.0611  0.5006 -1.7991
 6184SOL    HW220003   1.171   4.860   2.548 -0.1910 -0.9057 -1.0558
 6185SOL     OW20004   2.157   2.249   0.422 -0.0827  0.2880  0.7624
 6185SOL    HW120005   2.108   2.176   0.459  1.0910 -0.4425  0.9381
 6185SOL    HW220006   2.242   2.212   0.399 -0.6793  0.6720 -2.6583
 6186SOL     OW20007   2.841   0.769   3.175 -0.3566  0.5892  0.5302
 6186SOL    HW120008   2.804   0.712   3.243  1.2347  1.8007  2.5326
 6186SOL    HW220009   2.936   0.760   3.186 -0.0591  2.8036  0.2371
 6187SOL     OW20010   3.998   0.512   1.392  0.1561  0.3964  0.5551
 6187SOL    HW120011   3.941   0.530   1.317 -0.4000  0.5711  1.0157
 6187SOL    HW220012   4.040   0.428   1.370  0.5926  0.8287 -0.2966
 6188SOL     OW20013   4.584   5.526   4.672 -0.7542 -0.1629  0.8033
 6188SOL    HW120014   4.522   5.515   4.600 -0.5252  1.6848  0.2664
 6188SOL    HW220015   4.563   5.456   4.733 -3.1606  0.2138  0.4869
 6189SOL     OW20016   6.954   3.136   6.616  0.1045  0.2930  0.5130
 6189SOL    HW120017   6.861   3.153   6.602  0.1227 -0.9504 -1.4307
 6189SOL    HW220018   6.956   3.074   6.689 -0.5075  0.9324  1.1003
 6190SOL     OW20019   3.511   1.058   5.885  0.4782 -0.6153 -0.2051
 6190SOL    HW120020   3.464   1.097   5.959  0.7058 -0.1803 -0.2817
 6190SOL    HW220021   3.492   0.965   5.891  0.7023 -0.6211  0.5534
 6191SOL     OW20022   4.656   1.638   2.772 -0.5643  0.4155  0.3182
 6191SOL    HW120023   4.748   1.659   2.789 -0.6619  0.6444  0.5620
 6191SOL    HW220024   4.642   1.555   2.818 -0.2917  0.0148 -0.3027
 6192SOL     OW20025   4.133   6.567   6.765 -0.7660  0.1942 -0.4113
 6192SOL    HW120026   4.168   6.651   6.793  1.2033 -1.2272  1.7134
 6192SOL    HW220027   4.177   6.549   6.682 -1.2503  1.2223 -0.9173
 6193SOL     OW20028   5.167   3.994   2.400 -0.0930  0.0046  0.1352
 6193SOL    HW120029   5.160   3.975   2.494  1.7500 -0.8979  0.1429
 6193SOL    HW220030   5.115   4.073   2.388 -2.0750 -0.9840  1.5221
 6194SOL     OW20031   2.341   0.209   6.005  0.2463 -0.2768  0.4484
 6194SOL    HW120032   2.272   0.229   5.942  0.5112 -1.3170 -0.1877
 6194SOL    HW220033   2.397   0.145   5.961  0.8813 -0.4451  1.4525
 6195SOL     OW20034   0.218   5.289   1.591  0.3390  0.6094  0.0264
 6195SOL    HW120035   0.225   5.298   1.686 -0.0663 -1.7819  0.3583
 6195SOL    HW220036   0.301   5.324   1.557 -0.1085  2.8395  1.0920
 6196SOL     OW20037   2.349   2.167   6.562 -0.1946 -0.1621  0.6508
 6196SOL    HW120038   2.310   2.083   6.587 -1.4424 -0.3623 -1.6967
 6196SOL    HW220039   2.368   2.210   6.645  1.4025 -3.1407  1.9618
 6197SOL     OW20040   0.525   6.158   0.534 -0.0377  0.6148 -0.1068
 6197SOL    HW120041   0.601   6.174   0.477  0.6879 -0.5681  0.4905
 6197SOL    HW220042   0.499   6.068   0.514 -0.6551  0.6696  0.4374
 6198SOL     OW20043   6.882   6.134   3.856  0.0492 -0.0814 -0.1314
 6198SOL    HW120044   6.819   6.062   3.853  0.5822 -0.5741  0.3866
 6198SOL    HW220045   6.831   6.211   3.830 -0.6095 -0.5816 -0.3442
 6199SOL     OW20046   3.405   5.730   0.880 -0.8370 -0.0108 -0.0867
 6199SOL    HW120047   3.372   5.820   0.873 -0.0215  0.2693 -0.4448
 6199SOL    HW220048   3.477   5.726   0.817  0.2595 -0.4096  1.1394
 6200SOL     OW20049   0.430   5.496   0.064  0.1769 -0.2991  0.6028
 6200SOL    HW120050   0.341   5.489   0.098  0.1821  0.5325  0.8046
 6200SOL    HW220051   0.485   5.460   0.135  0.0406 -0.3906  0.6629
 6201SOL     OW20052   2.181   2.144   1.836  0.2745  0.9324 -0.5523
 6201SOL    HW120053   2.270   2.142   1.871  0.1921  0.5570 -0.3583
 6201SOL    HW220054   2.178   2.071   1.774  0.4773  1.7126 -1.5048
 6202SOL     OW20055   4.691   4.750   4.008 -0.4674  0.4040 -0.3337
 6202SOL    HW120056   4.621   4.760   3.944  0.0920 -2.3415 -1.5131
 6202SOL    HW220057   4.763   4.710   3.960  1.0735  0.9124  1.3898
 6203SOL     OW20058   0.737   0.903   5.358 -0.2674  0.2813 -0.5254
 6203SOL    HW120059   0.646   0.912   5.386  0.1269 -1.4746  1.6398
 6203SOL    HW220060   0.777   0.986   5.380 -0.6915  0.0034  1.4859
 6204SOL     OW20061   0.595   6.359   0.739  0.8887 -0.3327 -0.7524
 6204SOL    HW120062   0.514   6.383   0.784  1.2515  2.5283 -1.3921
 6204SOL    HW220063   0.572   6.282   0.687 -1.0015 -0.4746  0.2238
 6205SOL     OW20064   4.777   4.039   6.619  0.3082 -0.4442 -0.0892
 6205SOL    HW120065   4.765   4.127   6.584  0.9658 -0.4054 -0.2212
 6205SOL    HW220066   4.715   4.034   6.692 -1.1058 -0.5312 -1.2401
 6206SOL     OW20067   5.449   1.161   6.622  0.1281  0.3714  0.7199
 6206SOL    HW120068   5.394   1.189   6.550 -1.5344 -0.4599  1.6039
 6206SOL    HW220069   5.452   1.236   6.681 -0.2147  0.3702  0.7426
 6207SOL     OW20070   6.515   1.402   6.391  0.0890  0.4206 -0.2434
 6207SOL    HW120071   6.546   1.349   6.464 -1.6761 -1.8610 -1.0083
 6207SOL    HW220072   6.479   1.481   6.432 -1.9256 -1.2897  1.6004
 6208SOL     OW20073   4.300   5.565   3.951  0.1901  0.0509  0.1439
 6208SOL    HW120074   4.271   5.622   3.880 -0.5764  1.1221  1.2781
 6208SOL    HW220075   4.388   5.597   3.973  0.4971 -0.3919 -0.4192
 6209SOL     OW20076   4.473   6.176   7.019 -0.1425 -0.2385  0.8719
 6209SOL    HW120077   4.484   6.271   7.029  0.5139 -0.3891  1.6822
 6209SOL    HW220078   4.378   6.164   7.016 -0.2471  0.6300 -1.4756
 6210SOL     OW20079   0.173   3.859   2.625  0.3381 -0.2471 -0.3420
 6210SOL    HW120080   0.248   3.891   2.676  0.4214  1.6380 -1.5407
 6210SOL    HW220081   0.182   3.764   2.627  1.6426 -0.1383  1.1742
 6211SOL     OW20082   3.840   0.510   4.720 -0.4761 -0.1282 -0.5350
 6211SOL    HW120083   3.851   0.447   4.649 -0.7762  0.4202 -1.0829
 6211SOL    HW220084   3.774   0.471   4.778 -0.1604 -0.6195 -0.5062
 6212SOL     OW20085   3.340   3.274   7.134  0.4110 -0.0913 -0.1265
 6212SOL    HW120086   3.430   3.285   7.102  0.6774  1.3591  0.9865
 6212SOL    HW220087   3.286   3.276   7.054  1.4312 -3.0409 -1.0243
 6213SOL     OW20088   0.476   0.496   3.948 -0.2090  0.0963 -0.4353
 6213SOL    HW120089   0.419   0.545   4.007  0.2105  0.9177 -0.7063
 6213SOL    HW220090   0.418   0.471   3.875 -1.1969 -2.4582  1.0676
 6214SOL     OW20091   1.391   6.166   3.624  0.0172  0.2580 -0.2144
 6214SOL    HW120092   1.372   6.258   3.644 -0.8026  0.1365 -0.3718
 6214SOL    HW220093   1.306   6.129   3.601  0.1289 -0.8479  1.0305
 6215SOL     OW20094   1.662   6.865   3.586 -0.1068 -0.1236  0.5575
 6215SOL    HW120095   1.733   6.878   3.649 -0.8132  0.1488  1.3192
 6215SOL    HW220096   1.706   6.853   3.502  0.8007  2.0370  0.6595
 6216SOL     OW20097   2.875   2.932   3.434  0.2310  0.3458  0.9013
 6216SOL    HW120098   2.825   2.857   3.401  1.2366 -1.1011  2.5281
 6216SOL    HW220099   2.830   3.008   3.397  0.5837 -1.0309 -2.8425
 6217SOL     OW20100   6.698   0.100   6.312 -0.0042  0.2313 -0.1473
 6217SOL    HW120101   6.785   0.063   6.324  0.0018 -1.0042 -3.1081
 6217SOL    HW220102   6.697   0.133   6.222 -2.8709 -0.6801 -0.5712
 6218SOL     OW20103   4.871   4.915   6.992  0.0795  0.3400 -0.4769
 6218SOL    HW120104   4.922   4.978   6.940 -0.5493  0.2974 -1.1621
 6218SOL    HW220105   4.849   4.963   7.072  0.7660  0.5233 -0.3833
 6219SOL     OW20106   5.440   6.378   0.588 -0.5958 -0.8821 -0.2065
 6219SOL    HW120107   5.418   6.433   0.513  0.1030  1.0813  0.9483
 6219SOL    HW220108   5.499   6.311   0.553  3.4120  2.5644 -0.8184
 6220SOL     OW20109   4.923   2.428   6.649 -0.7392  0.1607  0.8411
 6220SOL    HW120110   4.919   2.362   6.580 -2.6756  0.4109  0.6775
 6220SOL    HW220111   4.950   2.380   6.727 -0.8355 -0.5589  0.4387
 6221SOL     OW20112   2.810   3.617   1.822  0.5817 -0.5586  0.3694
 6221SOL    HW120113   2.803   3.547   1.758  0.9698 -0.1696 -0.1104
 6221SOL    HW220114   2.748   3.594   1.890  2.3961 -2.6482  1.4460
 6222SOL     OW20115   0.772   1.184   0.931 -0.7694  0.2100 -0.4541
 6222SOL    HW120116   0.781   1.106   0.987  0.9782  0.9141  0.3178
 6222SOL    HW220117   0.678   1.200   0.929 -1.0723 -1.1875  0.4088
 6223SOL     OW20118   1.633   4.720   6.723 -0.2272  0.0782 -0.0063
 6223SOL    HW120119   1.549   4.767   6.719  0.5410  1.4298 -1.3545
 6223SOL    HW220120   1.661   4.714   6.632  1.1854 -0.2664  0.4364
 6224SOL     OW20121   7.075   5.850   0.518  0.0573 -0.6880 -0.1168
 6224SOL    HW120122   7.035   5.930   0.553  1.0606 -0.1753 -0.1130
 6224SOL    HW220123   7.022   5.829   0.441 -1.4930 -1.2114  1.0454
 6225SOL     OW20124   5.030   2.189   5.259 -0.5486  0.3760  0.4110
 6225SOL    HW120125   4.982   2.124   5.209  0.4543 -1.2262  1.4376
 6225SOL    HW220126   5.014   2.166   5.351 -2.8553  3.5994  1.0109
 6226SOL     OW20127   1.675   0.980   0.054  0.6446 -0.2830 -0.2082
 6226SOL    HW120128   1.692   0.943  -0.032  1.7735  0.3657 -0.2873
 6226SOL    HW220129   1.706   0.913   0.116  0.2539 -0.5576 -0.3078
 6227SOL     OW20130   2.269   6.271   7.024  0.2438 -0.3247 -0.3635
 6227SOL    HW120131   2.343   6.215   7.047  1.2672  1.7470  1.7160
 6227SOL    HW220132   2.193   6.213   7.029  1.4228 -1.9161 -0.0277
 6228SOL     OW20133   3.976   4.603   5.739 -0.7854 -0.3286 -0.0358
 6228SOL    HW120134   4.061   4.629   5.774 -0.3202 -0.9036 -0.7076
 6228SOL    HW220135   3.996   4.529   5.681 -1.2137  1.6417 -2.9439
 6229SOL     OW20136   2.084   2.110   3.412  0.2718 -0.1116  0.6762
 6229SOL    HW120137   1.989   2.101   3.401  0.4416 -0.0611 -1.0082
 6229SOL    HW220138   2.118   2.021   3.408  0.3056 -0.1501  1.4845
 6230SOL     OW20139   0.737   3.371   3.686  0.4257 -0.5086 -0.4193
 6230SOL    HW120140   0.790   3.363   3.606  1.5648  1.5353  0.0648
 6230SOL    HW220141   0.649   3.393   3.655  0.7346 -0.2417 -1.1177
 6231SOL     OW20142   6.607   6.663   0.051  0.6861  0.2704 -0.7332
 6231SOL    HW120143   6.655   6.643   0.131  0.4436 -0.7665 -0.8403
 6231SOL    HW220144   6.611   6.759   0.045 -0.7367  0.5356  1.4038
 6232SOL     OW20145   4.660   5.148   5.929  0.0319  0.4910  0.2194
 6232SOL    HW120146   4.697   5.083   5.869 -3.5314 -3.6920  2.0812
 6232SOL    HW220147   4.615   5.210   5.872  1.5099  0.0430 -1.5406
 6233SOL     OW20148   4.443   0.667   0.733  0.2037 -0.2058 -0.3796
 6233SOL    HW120149   4.508   0.735   0.716  1.3196 -1.3487 -0.8337
 6233SOL    HW220150   4.359   0.713   0.733  1.0173  1.3501  0.4976
 6234SOL     OW20151   1.997   5.302   5.090  0.3992  0.0047 -0.0776
 6234SOL    HW120152   2.070   5.240   5.092  1.2198  0.8717 -1.2571
 6234SOL    HW220153   1.921   5.249   5.064  1.1810 -0.4604 -1.5683
 6235SOL     OW20154   4.612   1.782   2.194  0.4509  0.8553 -0.1102
 6235SOL    HW120155   4.608   1.760   2.101  2.8011 -2.1415  0.3528
 6235SOL    HW220156   4.705   1.796   2.211  0.1965  0.3651  1.9562
 6236SOL     OW20157   4.402   4.197   3.808  0.2284 -0.3299 -0.4344
 6236SOL    HW120158   4.311   4.192   3.779 -0.5559 -0.1865  1.8290
 6236SOL    HW220159   4.403   4.269   3.871  1.5583 -1.2944  0.7028
 6237SOL     OW20160   5.844   4.898   3.183 -0.5656  0.4120 -0.2549
 6237SOL    HW120161   5.782   4.855   3.242  0.4613 -0.6204  0.0959
 6237SOL    HW220162   5.912   4.933   3.240  0.9583 -1.4341 -0.8039
 6238SOL     OW20163   6.672   1.938   2.912 -0.0263  0.1025 -0.5492
 6238SOL    HW120164   6.751   1.983   2.943 -0.4432  0.4686  0.0062
 6238SOL    HW220165   6.693   1.912   2.822 -0.4030  2.9734 -1.5679
 6239SOL     OW20166   0.591   4.298   1.491  0.1899 -0.2302 -0.4101
 6239SOL    HW120167   0.656   4.231   1.469  1.2656  0.5565  0.2964
 6239SOL    HW220168   0.636   4.381   1.475 -1.2020  0.3479 -1.5120
 6240SOL     OW20169   5.039   0.817   3.342  0.3641 -0.4033  0.2174
 6240SOL    HW120170   4.977   0.851   3.407 -0.2114  0.0244 -0.5327
 6240SOL    HW220171   4.984   0.765   3.282  1.1367 -2.2830  1.0377
 6241SOL     OW20172   5.948   0.726   3.527  0.1944  0.2359 -0.0585
 6241SOL    HW120173   5.932   0.681   3.610 -1.0786  1.9010  0.6715
 6241SOL    HW220174   5.863   0.725   3.483  0.8229 -0.5013 -1.3089
 6242SOL     OW20175   2.735   4.364   5.422 -0.0215 -0.1214 -0.4873
 6242SOL    HW120176   2.767   4.451   5.447  0.6833 -0.3074 -0.7269
 6242SOL    HW220177   2.807   4.325   5.373 -0.7463 -0.4208 -1.3373
 6243SOL     OW20178   0.386   0.972   6.243 -0.1361 -0.0176  0.5794
 6243SOL    HW120179   0.460   1.002   6.190 -0.7688  0.5619 -0.0047
 6243SOL    HW220180   0.319   1.040   6.232 -0.7075 -0.4621  1.2006
 6244SOL     OW20181   1.583   1.362   5.840 -0.0108  0.2442  0.2540
 6244SOL    HW120182   1.488   1.361   5.848 -0.1829  1.1250 -1.1871
 6244SOL    HW220183   1.600   1.419   5.765  1.7234  1.0953  1.2276
 6245SOL     OW20184   3.590   4.668   4.396 -0.3082 -0.1602 -0.0457
 6245SOL    HW120185   3.519   4.731   4.382 -0.0149  0.1343 -0.2397
 6245SOL    HW220186   3.603   4.668   4.490 -1.0544 -0.7650  0.0631
 6246SOL     OW20187   0.760   1.709   6.312  0.1310 -0.2921  0.2587
 6246SOL    HW120188   0.766   1.772   6.384  0.7205  0.4160 -0.3937
 6246SOL    HW220189   0.846   1.667   6.310  0.7053  0.8955 -1.0919
 6247SOL     OW20190   7.093   2.908   0.130 -0.1365  0.5458  0.2605
 6247SOL    HW120191   7.023   2.922   0.066 -0.6244  0.1505  0.6978
 6247SOL    HW220192   7.072   2.967   0.202  1.1595  2.0159 -0.4879
 6248SOL     OW20193   1.025   5.188   3.545  0.3902 -0.3071  0.1109
 6248SOL    HW120194   1.024   5.124   3.617 -2.9450  0.3163  0.7999
 6248SOL    HW220195   1.069   5.142   3.473  2.4972 -1.4998  2.0277
 6249SOL     OW20196   1.968   0.773   0.309 -0.6283  0.4380 -0.5039
 6249SOL    HW120197   1.945   0.692   0.262  0.2401  0.0002 -0.1942
 6249SOL    HW220198   2.063   0.778   0.302 -0.4389  0.2051  1.4580
 6250SOL     OW20199   2.658   4.466   4.038  0.1475 -0.0392  0.0663
 6250SOL    HW120200   2.659   4.428   3.950 -1.2252 -1.3284  0.5644
 6250SOL    HW220201   2.685   4.394   4.095 -0.3245  0.3876  0.8290
 6251SOL     OW20202   6.437   4.961   5.956 -0.5813  0.0443 -0.0544
 6251SOL    HW120203   6.363   4.952   5.895 -0.1157 -2.3484 -0.3586
 6251SOL    HW220204   6.395   4.980   6.040 -1.2929  2.2232 -0.8119
 6252SOL     OW20205   4.455   1.894   6.370 -0.0198  0.1263  0.0708
 6252SOL    HW120206   4.459   1.813   6.320  0.6762  1.2631 -1.7863
 6252SOL    HW220207   4.542   1.903   6.408 -0.2673 -0.2453  0.7612
 6253SOL     OW20208   3.039   3.988   4.591 -0.2146  0.0261 -0.0898
 6253SOL    HW120209   3.058   3.957   4.502 -1.3689  0.9564 -0.6953
 6253SOL    HW220210   3.057   4.082   4.587 -0.7637  0.1597  0.5178
 6254SOL     OW20211   5.404   2.335   1.262 -0.0648  0.0431  0.5456
 6254SOL    HW120212   5.367   2.390   1.193  0.7333  0.3587  0.3559
 6254SOL    HW220213   5.491   2.310   1.229 -0.5289 -1.5981  0.4920
 6255SOL     OW20214   5.638   1.155   5.793 -0.2248 -0.0490 -0.2723
 6255SOL    HW120215   5.707   1.154   5.726  0.2858  0.4774  0.2277
 6255SOL    HW220216   5.664   1.226   5.852 -0.8077 -0.3301  0.3302
 6256SOL     OW20217   3.972   5.671   2.986  0.4895  0.2520  0.6351
 6256SOL    HW120218   3.960   5.764   3.001 -1.4859 -0.3480  3.5883
 6256SOL    HW220219   3.892   5.643   2.941  1.4749  0.0540 -1.1004
 6257SOL     OW20220   6.940   6.942   0.237 -0.5574  0.6572 -0.2298
 6257SOL    HW120221   6.999   6.961   0.164 -0.8559  2.5629 -0.0112
 6257SOL    HW220222   6.871   7.007   0.229 -1.5204 -0.2105  0.7636
 6258SOL     OW20223   0.565   7.026   0.887 -0.2959  0.0257  0.2099
 6258SOL    HW120224   0.557   7.106   0.835  1.9724  0.1293 -0.0505
 6258SOL    HW220225   0.563   7.055   0.978 -0.1266  0.3052  0.1227
 6259SOL     OW20226   6.117   3.190   2.472  0.9691  0.1983 -0.1741
 6259SOL    HW120227   6.059   3.265   2.455  1.1503  0.5960  0.8664
 6259SOL    HW220228   6.193   3.205   2.416  0.0621 -0.3700 -1.6185
 6260SOL     OW20229   6.486   6.641   6.768  0.4121  0.1783  0.6708
 6260SOL    HW120230   6.465   6.568   6.710  0.8484  0.4629  0.1493
 6260SOL    HW220231   6.483   6.718   6.712  0.0965  0.5506  1.1891
 6261SOL     OW20232   4.990   3.826   0.532  0.6331 -0.5052 -0.2666
 6261SOL    HW120233   5.026   3.748   0.573 -0.8226 -0.8035  0.4899
 6261SOL    HW220234   4.979   3.802   0.440 -1.4570 -1.8538  0.2689
 6262SOL     OW20235   6.500   4.227   2.940  0.1117  0.5962  0.0624
 6262SOL    HW120236   6.557   4.294   2.978  0.5533 -0.0672  0.5835
 6262SOL    HW220237   6.497   4.248   2.847  1.0137  0.7731  0.0723
 6263SOL     OW20238   1.854   4.498   3.853  0.3504 -0.4769  0.7653
 6263SOL    HW120239   1.844   4.592   3.870 -3.6251 -0.6399  0.4113
 6263SOL    HW220240   1.898   4.494   3.768 -2.3863  1.3263 -0.9116
 6264SOL     OW20241   3.119   4.549   1.465  0.7134 -0.2070  0.0906
 6264SOL    HW120242   3.026   4.569   1.456  1.1658  1.9440 -0.3671
 6264SOL    HW220243   3.132   4.535   1.559  0.4185  2.5517  0.6109
 6265SOL     OW20244   1.596   6.996   5.049 -0.9558  0.0912  0.2114
 6265SOL    HW120245   1.548   6.916   5.030  1.1389 -0.7769 -1.9792
 6265SOL    HW220246   1.611   7.036   4.963 -2.4351  3.2152  1.2464
 6266SOL     OW20247   3.748   1.728   3.660 -0.2941  0.1490 -0.1373
 6266SOL    HW120248   3.732   1.811   3.616  2.1715  0.9882  0.4032
 6266SOL    HW220249   3.740   1.748   3.753  1.0717  0.0106  0.0293
 6267SOL     OW20250   6.195   6.377   5.724 -0.6549  0.1363  0.4130
 6267SOL    HW120251   6.241   6.342   5.800  1.3531  3.0101  0.6709
 6267SOL    HW220252   6.104   6.384   5.752 -0.0515  0.6788  2.4223
 6268SOL     OW20253   1.390   0.620   4.269 -0.6583  0.4871 -0.3959
 6268SOL    HW120254   1.474   0.649   4.233 -0.1077  0.7988  1.0376
 6268SOL    HW220255   1.354   0.698   4.311  0.1650 -0.4600  2.2872
 6269SOL     OW20256   1.291   1.123   0.356  0.0654 -0.4455 -0.5404
 6269SOL    HW120257   1.214   1.066   0.350 -1.8249  1.8640  0.3916
 6269SOL    HW220258   1.304   1.157   0.268  0.4356 -1.3069 -0.8297
 6270SOL     OW20259   2.153   0.287   4.079 -0.6550  0.2519  0.2816
 6270SOL    HW120260   2.240   0.277   4.117 -0.6253  1.1979  0.4756
 6270SOL    HW220261   2.168   0.290   3.985 -0.3465  1.5845  0.3612
 6271SOL     OW20262   6.773   2.146   3.807 -0.6162 -0.0308 -0.1848
 6271SOL    HW120263   6.856   2.192   3.808 -0.9674  0.6138  0.1035
 6271SOL    HW220264   6.737   2.159   3.895 -0.5898 -1.1192  0.0063
 6272SOL     OW20265   6.708   0.231   0.934  0.0783  0.0405  0.0446
 6272SOL    HW120266   6.753   0.181   1.002 -0.7841 -0.1658  0.4819
 6272SOL    HW220267   6.701   0.170   0.860 -1.4746 -0.7307  0.7718
 6273SOL     OW20268   4.335   1.580   3.699 -0.4869 -0.6655 -0.0268
 6273SOL    HW120269   4.340   1.630   3.781 -0.1078  0.0420 -0.4727
 6273SOL    HW220270   4.420   1.591   3.658 -0.9374 -0.3330 -0.9098
 6274SOL     OW20271   3.871   1.551   2.572 -0.1131  0.1936 -0.2349
 6274SOL    HW120272   3.961   1.582   2.564  0.0923 -0.7950 -3.0532
 6274SOL    HW220273   3.818   1.631   2.577  0.8468  0.7866  1.0077
 6275SOL     OW20274   2.978   4.804   1.959 -0.0492 -0.3826  0.0230
 6275SOL    HW120275   2.899   4.751   1.969 -0.4773  0.1293 -0.5312
 6275SOL    HW220276   3.047   4.754   2.002 -0.7764 -0.6087  0.9536
 6276SOL     OW20277   3.688   6.729   0.983 -0.5302 -0.2155 -0.4151
 6276SOL    HW120278   3.737   6.768   0.911 -2.0832  0.6751 -1.0544
 6276SOL    HW220279   3.748   6.729   1.057  0.8346 -0.3788 -1.4829
 6277SOL     OW20280   0.532   4.782   6.675 -0.8489 -0.5193 -0.5039
 6277SOL    HW120281   0.515   4.725   6.750 -1.2467 -0.1903 -0.3420
 6277SOL    HW220282   0.604   4.740   6.629 -1.8466 -1.7332 -0.9884
 6278SOL     OW20283   5.508   6.359   5.719  0.0463 -0.1874  0.4524
 6278SOL    HW120284   5.470   6.295   5.658  0.3210  0.2186 -0.1532
 6278SOL    HW220285   5.598   6.369   5.690  0.0154  0.4583  0.5547
 6279SOL     OW20286   0.515   6.571   7.074 -0.4257 -0.5602 -0.0632
 6279SOL    HW120287   0.472   6.573   7.160  0.8341 -1.1537  0.6055
 6279SOL    HW220288   0.448   6.604   7.013 -1.2052  0.2836  1.1941
 6280SOL     OW20289   6.212   6.658   0.582  1.1796  0.4573 -0.4165
 6280SOL    HW120290   6.228   6.593   0.650 -0.1177  0.5459 -0.0060
 6280SOL    HW220291   6.131   6.631   0.540  0.8055  1.6028 -0.4809
 6281SOL     OW20292   1.520   2.844   1.182  0.6017  0.3215 -0.1011
 6281SOL    HW120293   1.469   2.922   1.160 -1.7735 -0.7078  1.3016
 6281SOL    HW220294   1.492   2.778   1.119  1.4643  0.1795 -0.3432
 6282SOL     OW20295   0.764   0.536   4.323 -0.6847 -0.0914 -0.0392
 6282SOL    HW120296   0.854   0.518   4.350 -1.4052 -0.9170  1.9898
 6282SOL    HW220297   0.743   0.467   4.261 -0.0692 -0.1482 -0.1912
 6283SOL     OW20298   1.420   4.968   1.197 -0.1166 -0.2406 -0.7544
 6283SOL    HW120299   1.398   4.883   1.235 -0.1627  0.3507  0.6107
 6283SOL    HW220300   1.492   5.001   1.251  0.4360  0.2621 -1.7554
 6284SOL     OW20301   2.962   6.569   2.539  0.0786 -0.5229 -0.0265
 6284SOL    HW120302   2.905   6.607   2.472  0.2900  0.2429  0.2233
 6284SOL    HW220303   3.050   6.575   2.503  0.2130  0.0554  0.3909
 6285SOL     OW20304   6.490   0.302   5.759 -0.0029 -0.4712  0.5745
 6285SOL    HW120305   6.554   0.313   5.689  1.3421 -0.0371  1.8290
 6285SOL    HW220306   6.474   0.207   5.763 -3.7632 -0.3140 -3.4002
 6286SOL     OW20307   0.458   2.967   4.155 -0.1660  0.0419  0.0148
 6286SOL    HW120308   0.390   3.034   4.170  0.0088 -0.2450  2.3598
 6286SOL    HW220309   0.510   2.967   4.235  2.3896 -0.0600 -1.5632
 6287SOL     OW20310   0.589   0.913   6.690 -0.2443 -0.1983 -0.0688
 6287SOL    HW120311   0.563   0.902   6.598 -1.6529  3.2279 -0.2339
 6287SOL    HW220312   0.521   0.868   6.740 -1.0576  0.2767 -0.7156
 6288SOL     OW20313   4.887   5.967   3.280 -0.3568  0.3895 -0.0948
 6288SOL    HW120314   4.880   5.879   3.241  1.5213 -0.0391  0.4176
 6288SOL    HW220315   4.940   6.016   3.218  1.1605  0.2227  1.0073
 6289SOL     OW20316   0.601   4.320   1.881 -0.4510  0.3130  0.6776
 6289SOL    HW120317   0.539   4.250   1.899 -0.2160 -0.0291  0.1834
 6289SOL    HW220318   0.686   4.283   1.905 -0.1805 -0.0083 -0.7130
 6290SOL     OW20319   6.112   0.748   5.955 -0.0811 -0.4179  0.4786
 6290SOL    HW120320   6.132   0.791   6.039 -1.6275  2.2761 -0.3946
 6290SOL    HW220321   6.029   0.702   5.971 -0.1037 -0.3453  0.5727
 6291SOL     OW20322   0.812   2.096   1.286 -0.1963 -0.1948 -0.8397
 6291SOL    HW120323   0.858   2.179   1.273  0.9365 -0.7479 -0.4928
 6291SOL    HW220324   0.720   2.121   1.298 -0.0839  0.8998 -2.0401
 6292SOL     OW20325   3.050   0.520   7.041 -0.1627  0.0758 -0.1408
 6292SOL    HW120326   3.083   0.467   7.114 -0.5698 -1.6764 -1.1563
 6292SOL    HW220327   2.995   0.459   6.990  2.7068  0.1619 -3.7729
 6293SOL     OW20328   6.416   6.313   4.171 -0.7007  0.0124 -0.2897
 6293SOL    HW120329   6.341   6.369   4.156 -1.0042 -0.4821 -0.6653
 6293SOL    HW220330   6.380   6.234   4.211 -0.2155  0.2784  0.6893
 6294SOL     OW20331   2.481   1.228   2.625  0.5414 -0.1814  0.2570
 6294SOL    HW120332   2.474   1.133   2.618 -0.6605 -0.0937  0.0880
 6294SOL    HW220333   2.498   1.257   2.535  1.7437 -0.2839  0.4364
 6295SOL     OW20334   1.890   3.618   5.802 -0.1578  0.3857  0.0407
 6295SOL    HW120335   1.941   3.647   5.726 -0.8135  1.7472  0.0921
 6295SOL    HW220336   1.949   3.628   5.876  0.0599  0.2944 -0.1181
 6296SOL     OW20337   4.408   6.943   3.202  0.1312  0.5798  0.0300
 6296SOL    HW120338   4.374   6.861   3.237  0.7424  0.4058  0.2261
 6296SOL    HW220339   4.369   6.951   3.115  1.8269 -1.0561 -0.9402
 6297SOL     OW20340   6.915   6.437   5.590  0.4070  0.1264  0.0391
 6297SOL    HW120341   6.930   6.519   5.542  1.7111 -0.1085  0.0257
 6297SOL    HW220342   6.821   6.421   5.579  0.4995  0.5188 -1.7641
 6298SOL     OW20343   6.074   7.005   3.897  0.0478  0.3679  0.2037
 6298SOL    HW120344   6.030   6.940   3.951  0.4120  0.3270  0.4615
 6298SOL    HW220345   6.006   7.041   3.840  0.3148 -2.0293 -1.7720
 6299SOL     OW20346   5.033   6.632   4.109  0.5767 -0.2864 -0.2208
 6299SOL    HW120347   4.963   6.577   4.073  0.9549 -0.2649 -0.9996
 6299SOL    HW220348   5.001   6.658   4.196  0.7707 -2.4659  0.5608
 6300SOL     OW20349   3.378   5.836   3.277  0.0843 -0.3077 -0.6786
 6300SOL    HW120350   3.307   5.898   3.291  0.0255 -0.7183  1.0487
 6300SOL    HW220351   3.360   5.764   3.337  3.5948  1.0116  2.3875
 6301SOL     OW20352   3.382   5.236   0.738  0.7809  0.0825  0.5677
 6301SOL    HW120353   3.314   5.174   0.715  1.2698 -0.3704  0.3297
 6301SOL    HW220354   3.359   5.316   0.690  0.4966 -0.1131  0.3754
 6302SOL     OW20355   6.567   4.528   5.639 -0.2680 -0.7277  0.3004
 6302SOL    HW120356   6.597   4.466   5.573  0.5433  1.2949 -1.3500
 6302SOL    HW220357   6.641   4.535   5.700 -0.2179 -1.1169  0.2827
 6303SOL     OW20358   3.496   4.948   0.139  0.3951  0.4801 -0.3334
 6303SOL    HW120359   3.445   4.961   0.219  1.0132  1.7490 -0.1226
 6303SOL    HW220360   3.451   4.876   0.094  1.3131 -1.8426  2.1729
 6304SOL     OW20361   3.286   6.809   1.310 -0.1088  0.0821 -0.8183
 6304SOL    HW120362   3.192   6.800   1.300 -0.2218 -0.0931  0.3316
 6304SOL    HW220363   3.309   6.884   1.254 -1.1518  1.1171  0.1044
 6305SOL     OW20364   5.307   6.491   5.887 -0.4839 -0.3989  0.2726
 6305SOL    HW120365   5.254   6.537   5.822  1.2475  2.4432  0.7330
 6305SOL    HW220366   5.391   6.476   5.842 -0.8554 -2.9482  0.2611
 6306SOL     OW20367   0.757   4.575   4.682  0.5023 -0.4716  0.9716
 6306SOL    HW120368   0.668   4.547   4.700  0.1529 -0.8159 -1.0870
 6306SOL    HW220369   0.783   4.625   4.760 -2.8266  2.9246  0.1777
 6307SOL     OW20370   5.438   1.676   4.864 -0.6447  0.4514 -0.0539
 6307SOL    HW120371   5.512   1.644   4.813  0.3898 -0.0515  1.6943
 6307SOL    HW220372   5.380   1.600   4.873 -0.2770  0.2307  0.4669
 6308SOL     OW20373   4.883   4.769   0.461 -0.4415  0.6794 -0.3838
 6308SOL    HW120374   4.793   4.773   0.493 -0.5298  1.2378 -0.6984
 6308SOL    HW220375   4.899   4.854   0.421 -0.0444  0.2970 -1.0703
 6309SOL     OW20376   0.816   2.962   5.128 -0.2967 -0.1002  0.0961
 6309SOL    HW120377   0.770   2.989   5.049 -0.3056 -0.0836  0.1072
 6309SOL    HW220378   0.776   2.878   5.151 -0.1501 -0.2086 -0.0368
 6310SOL     OW20379   6.537   0.180   3.633 -0.0681 -0.5681  0.0872
 6310SOL    HW120380   6.489   0.195   3.551  0.3092 -1.2666 -0.2725
 6310SOL    HW220381   6.475   0.205   3.702  0.6041  3.0070 -0.3885
 6311SOL     OW20382   0.181   5.418   0.181 -0.3703  0.2107  0.1463
 6311SOL    HW120383   0.147   5.329   0.184 -2.4400  0.9395  0.2319
 6311SOL    HW220384   0.107   5.471   0.150  0.5697  1.9886  0.7833
 6312SOL     OW20385   1.161   4.526   6.132 -0.5821  0.4313 -0.5675
 6312SOL    HW120386   1.188   4.477   6.054  0.8222  0.1705  0.0408
 6312SOL    HW220387   1.068   4.507   6.142 -0.0390 -2.4855 -0.1201
 6313SOL     OW20388   4.752   6.962   6.772  0.6185 -0.3491 -0.1311
 6313SOL    HW120389   4.776   6.893   6.709 -0.7958 -2.0860  1.1186
 6313SOL    HW220390   4.803   6.942   6.850  0.6556  0.4237  0.0489
 6314SOL     OW20391   1.920   2.124   1.898 -0.4038 -0.1289 -0.2588
 6314SOL    HW120392   2.011   2.149   1.882 -0.7028 -0.4105 -2.7650
 6314SOL    HW220393   1.918   2.030   1.881 -0.5339 -0.8943  3.2255
 6315SOL     OW20394   2.047   3.550   4.777  0.3437 -1.1348  0.7855
 6315SOL    HW120395   1.966   3.512   4.744  0.5430  0.2661 -1.5396
 6315SOL    HW220396   2.094   3.476   4.817 -1.0877 -2.4176  0.1925
 6316SOL     OW20397   5.169   0.646   0.471  0.8043 -0.0351 -0.5932
 6316SOL    HW120398   5.212   0.566   0.441  0.5743 -0.4271  0.0885
 6316SOL    HW220399   5.125   0.681   0.393  0.3705 -0.9203 -0.7600
 6317SOL     OW20400   0.775   1.354   1.664  0.5016 -0.3708  0.6637
 6317SOL    HW120401   0.732   1.382   1.745 -0.3457 -1.2143  0.5361
 6317SOL    HW220402   0.742   1.265   1.650 -0.1207  0.0973 -1.1096
 6318SOL     OW20403   3.920   0.087   4.550  0.2084 -0.3075 -0.1875
 6318SOL    HW120404   3.835   0.083   4.594  0.3574 -1.2440  0.0322
 6318SOL    HW220405   3.919   0.171   4.503 -0.9925 -0.4872 -0.5114
 6319SOL     OW20406   0.457   4.048   4.921 -0.0766 -0.0561 -0.3021
 6319SOL    HW120407   0.551   4.038   4.907  0.0471  0.6818  0.0107
 6319SOL    HW220408   0.430   3.965   4.959  0.4483 -0.2636 -0.3721
 6320SOL     OW20409   1.655   5.649   0.600 -0.2360  0.1644 -0.1276
 6320SOL    HW120410   1.657   5.672   0.692 -2.2605 -1.1505  0.2944
 6320SOL    HW220411   1.747   5.635   0.577  0.4866  2.3336  1.1571
 6321SOL     OW20412   2.420   5.671   0.251 -0.7158 -0.2618 -0.3252
 6321SOL    HW120413   2.363   5.651   0.177 -1.2457 -1.0707  0.2711
 6321SOL    HW220414   2.386   5.616   0.322  0.5769 -0.4684  0.1589
 6322SOL     OW20415   2.806   1.858   2.007  0.2134 -0.2301  0.0212
 6322SOL    HW120416   2.767   1.843   1.921  1.1390  1.1193 -0.6678
 6322SOL    HW220417   2.757   1.932   2.043  0.3579 -0.2852  0.3366
 6323SOL     OW20418   2.439   5.905   4.521 -0.0235  0.0407  0.6012
 6323SOL    HW120419   2.527   5.878   4.545  0.1667 -0.7216 -0.8513
 6323SOL    HW220420   2.432   5.885   4.427 -2.2225 -1.2423  0.9752
 6324SOL     OW20421   2.252   6.370   3.127  0.1411 -0.1741  0.0258
 6324SOL    HW120422   2.275   6.457   3.093 -1.5825  0.0400 -0.6776
 6324SOL    HW220423   2.196   6.387   3.203 -0.9953 -0.6439 -0.6806
 6325SOL     OW20424   5.341   1.308   6.158  0.2534 -0.4854 -0.2789
 6325SOL    HW120425   5.323   1.249   6.231 -1.0947  0.3408  0.0991
 6325SOL    HW220426   5.371   1.251   6.087 -1.2482 -1.6535 -0.0094
 6326SOL     OW20427   3.043   6.972   0.129 -0.1008 -0.6911  0.4426
 6326SOL    HW120428   3.015   6.919   0.054 -3.9638  2.2262 -0.4899
 6326SOL    HW220429   3.055   6.909   0.199 -0.5871 -3.1600 -1.5342
 6327SOL     OW20430   4.375   2.012   3.393 -0.6874 -0.3165  0.2360
 6327SOL    HW120431   4.316   2.035   3.321  1.2255  0.1337 -1.2675
 6327SOL    HW220432   4.368   1.917   3.400  0.5024 -0.6339 -1.9201
 6328SOL     OW20433   1.900   6.245   3.014 -0.0340  0.0278 -0.1432
 6328SOL    HW120434   1.975   6.188   3.029 -1.6655 -1.9323  1.0983
 6328SOL    HW220435   1.859   6.210   2.935 -0.5602  0.0395  0.1209
 6329SOL     OW20436   4.485   4.750   1.887  0.6042 -0.1214 -0.1025
 6329SOL    HW120437   4.465   4.664   1.922  1.1167 -0.4725 -0.6715
 6329SOL    HW220438   4.537   4.793   1.955 -0.6089  0.1834  0.6778
 6330SOL     OW20439   5.180   5.956   6.875 -1.1497 -0.1245 -0.1324
 6330SOL    HW120440   5.154   5.888   6.938 -1.7532  0.2090 -0.0182
 6330SOL    HW220441   5.255   5.918   6.829  0.7981  0.4677  2.2914
 6331SOL     OW20442   2.289   2.314   4.081  0.0306  0.3929  0.1029
 6331SOL    HW120443   2.205   2.336   4.123 -0.4983 -3.0684  1.1590
 6331SOL    HW220444   2.272   2.231   4.036  2.0109  1.4163 -2.7751
 6332SOL     OW20445   0.354   3.743   4.761 -0.7707  0.2239 -0.2943
 6332SOL    HW120446   0.429   3.686   4.742 -0.2805  0.4857  0.7532
 6332SOL    HW220447   0.386   3.831   4.739  0.2393  0.6978  2.6715
 6333SOL     OW20448   0.923   2.980   5.499  0.4615 -0.1207  0.1230
 6333SOL    HW120449   0.987   3.050   5.497 -0.0765  0.3958  0.5405
 6333SOL    HW220450   0.843   3.018   5.462 -0.4130  0.1271  2.1140
 6334SOL     OW20451   5.515   3.569   2.276 -0.3203 -0.4473  0.1611
 6334SOL    HW120452   5.463   3.626   2.333 -1.0112 -1.3774  0.4716
 6334SOL    HW220453   5.484   3.589   2.188 -0.9839 -0.7513  0.3161
 6335SOL     OW20454   5.538   3.361   5.559  0.3480  0.0820 -0.2361
 6335SOL    HW120455   5.541   3.450   5.594  0.3877  0.0679 -0.2030
 6335SOL    HW220456   5.515   3.307   5.635 -1.5270  0.2717 -0.6148
 6336SOL     OW20457   3.986   4.583   0.232  0.3861  0.1894  0.1762
 6336SOL    HW120458   3.899   4.606   0.198 -0.7748 -1.3179  1.8924
 6336SOL    HW220459   4.000   4.642   0.306  1.1047  0.8069 -0.4385
 6337SOL     OW20460   3.314   5.678   2.204 -0.8309 -0.2040  0.1189
 6337SOL    HW120461   3.323   5.771   2.182  0.9122 -0.3565  0.0518
 6337SOL    HW220462   3.321   5.675   2.299  3.0645 -0.5345 -0.0162
 6338SOL     OW20463   5.181   0.149   1.004 -0.1527 -0.7688  0.4463
 6338SOL    HW120464   5.260   0.142   1.057  0.4316 -1.0819 -0.4456
 6338SOL    HW220465   5.204   0.108   0.921 -1.7420 -2.3379  0.6949
 6339SOL     OW20466   5.691   7.080   4.649  0.0124  0.1111 -0.1415
 6339SOL    HW120467   5.731   7.028   4.579 -0.4206 -0.5877  0.1214
 6339SOL    HW220468   5.642   7.017   4.702  0.5711  0.5744  0.9728
 6340SOL     OW20469   5.475   4.596   6.673 -0.1820 -0.2741 -0.6232
 6340SOL    HW120470   5.543   4.633   6.730  0.0610 -1.0625 -0.3866
 6340SOL    HW220471   5.402   4.576   6.733 -0.3433 -0.1070 -0.7615
 6341SOL     OW20472   1.825   5.621   6.943 -0.5851  0.2327 -0.3448
 6341SOL    HW120473   1.917   5.594   6.940 -0.6594 -0.1435  0.4865
 6341SOL    HW220474   1.817   5.685   6.872  0.8170  1.8113  0.8185
 6342SOL     OW20475   5.476   5.374   1.909  0.8929 -0.3904 -0.4257
 6342SOL    HW120476   5.480   5.451   1.965  2.7140 -0.9858  0.3562
 6342SOL    HW220477   5.454   5.408   1.822  1.7419  1.0278 -0.1113
 6343SOL     OW20478   6.655   3.043   4.868 -0.0090 -0.0163  0.1627
 6343SOL    HW120479   6.748   3.056   4.885  0.1197 -0.6314 -0.0246
 6343SOL    HW220480   6.611   3.112   4.917  0.4305 -0.7875  1.7159
 6344SOL     OW20481   7.130   1.269   6.112 -0.1199 -0.3929 -0.3057
 6344SOL    HW120482   7.156   1.359   6.131  0.4720 -0.3545 -1.2493
 6344SOL    HW220483   7.043   1.278   6.072 -1.2155 -0.4510  1.9160
 6345SOL     OW20484   5.013   2.101   7.082 -0.0879 -0.2250 -0.3267
 6345SOL    HW120485   5.020   2.069   6.992  0.8703  2.4176 -1.2671
 6345SOL    HW220486   5.103   2.118   7.109 -0.5216  1.7579  0.0293
 6346SOL     OW20487   3.327   0.169   6.674 -0.2135 -0.4584  0.1759
 6346SOL    HW120488   3.243   0.165   6.720 -0.3607 -2.1849 -0.1874
 6346SOL    HW220489   3.356   0.078   6.669  1.0627 -0.0226 -0.8457
 6347SOL     OW20490   5.260   4.967   6.756 -0.1104 -0.0552 -0.3627
 6347SOL    HW120491   5.289   4.923   6.676  0.0303 -0.1341 -0.2693
 6347SOL    HW220492   5.270   4.902   6.825 -0.7308 -0.1535 -0.3656
 6348SOL     OW20493   0.803   4.745   1.464 -0.6049  0.5397 -0.3991
 6348SOL    HW120494   0.765   4.833   1.463 -1.1559  0.3122  0.2553
 6348SOL    HW220495   0.777   4.708   1.548  3.4225  1.3783  1.4592
 6349SOL     OW20496   6.879   1.877   4.848 -0.4405 -0.0086 -0.1841
 6349SOL    HW120497   6.919   1.959   4.875  1.0191 -0.4015 -1.0083
 6349SOL    HW220498   6.789   1.900   4.825 -0.2354  1.2345  0.1924
 6350SOL     OW20499   1.211   5.088   3.901  0.5437 -0.3100 -0.1744
 6350SOL    HW120500   1.305   5.071   3.898  0.7523  0.8016 -2.8575
 6350SOL    HW220501   1.182   5.080   3.810 -2.2796 -2.0075  0.7402
 6351SOL     OW20502   0.592   3.232   1.996  0.3466 -0.1598  0.2573
 6351SOL    HW120503   0.554   3.320   1.996 -0.8146 -0.6475  0.7042
 6351SOL    HW220504   0.684   3.246   1.971  0.1702  1.1665  0.2746
 6352SOL     OW20505   0.896   4.521   3.446 -0.0828 -0.6054 -0.2389
 6352SOL    HW120506   0.958   4.448   3.448  0.7432  0.0892  0.4163
 6352SOL    HW220507   0.818   4.485   3.405  0.7272 -1.5220 -1.0167
 6353SOL     OW20508   4.000   6.135   4.974 -0.6000  0.0144 -0.0734
 6353SOL    HW120509   3.960   6.053   4.946 -3.3088  1.2702 -0.2461
 6353SOL    HW220510   4.013   6.184   4.893 -0.8340  0.4982  0.1770
 6354SOL     OW20511   2.014   2.776   0.091  0.2374 -0.2010 -0.1882
 6354SOL    HW120512   2.097   2.754   0.133 -0.8531 -1.9282  1.1873
 6354SOL    HW220513   1.995   2.865   0.119  0.0695 -0.9265  2.1915
 6355SOL     OW20514   1.290   5.299   3.513  0.2338 -0.0581  0.3092
 6355SOL    HW120515   1.197   5.280   3.526 -0.0352  0.2546 -0.9858
 6355SOL    HW220516   1.309   5.369   3.575 -0.9056  1.2307 -0.7255
 6356SOL     OW20517   0.166   4.791   5.997 -0.6648  0.4535  0.1433
 6356SOL    HW120518   0.227   4.722   6.026 -0.0985  0.5958 -0.6645
 6356SOL    HW220519   0.129   4.826   6.078  0.3623  0.3867  0.6657
 6357SOL     OW20520   1.541   4.112   3.811 -0.2480  0.0984  0.2070
 6357SOL    HW120521   1.551   4.180   3.745 -0.1108  1.2810  1.3995
 6357SOL    HW220522   1.563   4.031   3.766  1.5613  1.0589 -0.7572
 6358SOL     OW20523   2.533   2.591   5.291 -0.0553  0.1653 -0.1015
 6358SOL    HW120524   2.476   2.530   5.339 -1.8236  0.6274 -1.4998
 6358SOL    HW220525   2.478   2.623   5.219  1.8485  1.0168 -1.2467
 6359SOL     OW20526   5.221   4.099   5.786  0.0819  0.2947  0.1451
 6359SOL    HW120527   5.127   4.090   5.773  0.4760 -0.8711 -2.5009
 6359SOL    HW220528   5.233   4.090   5.881 -2.3880 -0.0536  0.4940
 6360SOL     OW20529   2.087   5.602   6.911 -0.0430 -0.2413  0.1664
 6360SOL    HW120530   2.087   5.673   6.847  1.7109  0.9507  1.3801
 6360SOL    HW220531   2.128   5.528   6.866 -1.7937 -0.4980 -1.0794
 6361SOL     OW20532   6.874   6.557   5.824 -0.1456 -0.2470  0.4799
 6361SOL    HW120533   6.896   6.483   5.880 -1.5883 -1.1489 -0.0800
 6361SOL    HW220534   6.894   6.528   5.735  1.1500  0.7931  0.3926
 6362SOL     OW20535   1.197   1.785   3.124 -0.2796  0.0701 -0.3766
 6362SOL    HW120536   1.115   1.747   3.155  0.6059 -1.0419  0.7821
 6362SOL    HW220537   1.181   1.809   3.033 -2.1032  0.6131  0.0555
 6363SOL     OW20538   2.432   4.244   4.467 -0.1238  1.1774 -0.0448
 6363SOL    HW120539   2.495   4.316   4.478 -1.9179  2.5864  1.6555
 6363SOL    HW220540   2.462   4.177   4.527  2.4816 -0.3379 -2.7634
 6364SOL     OW20541   1.133   5.260   4.570  0.3696  0.2954  0.5630
 6364SOL    HW120542   1.130   5.353   4.596 -0.7835  0.9152 -1.5819
 6364SOL    HW220543   1.055   5.222   4.611 -0.1439  0.7093 -0.0107
 6365SOL     OW20544   0.653   6.165   2.079  0.5810 -0.1806 -0.7240
 6365SOL    HW120545   0.594   6.211   2.139 -0.4776 -0.5803 -1.4347
 6365SOL    HW220546   0.721   6.228   2.058  0.9654 -0.0227  0.8782
 6366SOL     OW20547   3.756   4.547   0.504  0.6519  0.1350  0.0855
 6366SOL    HW120548   3.710   4.624   0.472  1.8344  0.5772 -0.6236
 6366SOL    HW220549   3.830   4.582   0.554  1.2561 -0.5224 -0.3227
 6367SOL     OW20550   3.886   0.287   3.018  0.4163  0.0146  0.1599
 6367SOL    HW120551   3.967   0.278   2.968  0.3186  2.4238 -0.5546
 6367SOL    HW220552   3.847   0.369   2.987 -0.3636  0.9209  3.1919
 6368SOL     OW20553   5.426   5.365   4.068 -0.7733 -0.7235  0.3965
 6368SOL    HW120554   5.502   5.333   4.019  0.2700  0.6726  1.0403
 6368SOL    HW220555   5.353   5.356   4.007  0.4042  0.5320 -1.2908
 6369SOL     OW20556   4.922   0.237   0.727 -0.0188  0.2435  0.1238
 6369SOL    HW120557   4.961   0.298   0.790 -1.6542 -0.0548  1.5353
 6369SOL    HW220558   4.949   0.151   0.757 -3.3091 -0.1652  2.5408
 6370SOL     OW20559   4.419   1.692   5.398 -0.0615  0.1276 -0.0560
 6370SOL    HW120560   4.470   1.770   5.378 -1.0826  1.1012  0.9586
 6370SOL    HW220561   4.330   1.724   5.413 -0.2397 -1.0309  1.6959
 6371SOL     OW20562   5.790   5.535   2.683 -0.0389  0.8935 -0.3490
 6371SOL    HW120563   5.823   5.446   2.694 -1.8699  0.3589  1.6038
 6371SOL    HW220564   5.781   5.546   2.589 -3.8212 -2.6947 -0.7185
 6372SOL     OW20565   5.999   5.904   1.520  0.1720 -0.4017 -0.1138
 6372SOL    HW120566   5.997   5.832   1.583 -1.7721 -0.2259  0.0947
 6372SOL    HW220567   5.925   5.960   1.546  1.7976  1.8708 -0.0501
 6373SOL     OW20568   0.509   4.625   4.989 -0.3717  0.3216 -0.0696
 6373SOL    HW120569   0.495   4.717   5.014 -0.0756  0.0654  1.0530
 6373SOL    HW220570   0.422   4.586   4.991 -0.2268  0.0185  1.7664
 6374SOL     OW20571   5.513   3.298   2.399  0.3916 -0.4248 -0.2529
 6374SOL    HW120572   5.535   3.367   2.336 -0.5591  1.2488  1.1482
 6374SOL    HW220573   5.441   3.335   2.450  0.6271 -2.0263  1.3267
 6375SOL     OW20574   5.501   6.239   5.985 -0.0312 -0.3915  0.0005
 6375SOL    HW120575   5.434   6.171   5.992 -0.3921 -0.4656 -2.9382
 6375SOL    HW220576   5.494   6.271   5.896  2.3522  1.2270  0.2843
 6376SOL     OW20577   3.729   5.438   7.127  0.1290  0.5850 -0.0774
 6376SOL    HW120578   3.685   5.419   7.045  1.4568  0.9690 -0.9093
 6376SOL    HW220579   3.724   5.356   7.177  0.4358 -0.0492 -1.0713
 6377SOL     OW20580   6.767   2.583   3.067 -0.1987  0.1881  0.3204
 6377SOL    HW120581   6.672   2.580   3.057 -0.0205 -1.3175 -1.6183
 6377SOL    HW220582   6.789   2.505   3.118  0.0444 -0.1694 -0.3015
 6378SOL     OW20583   0.401   3.052   4.465 -0.3451 -0.0434 -0.1706
 6378SOL    HW120584   0.495   3.038   4.465 -0.4022 -0.4655 -1.1849
 6378SOL    HW220585   0.380   3.083   4.377 -1.1007  0.4689  0.1714
 6379SOL     OW20586   0.670   1.832   1.891  0.2910  0.6772  0.4290
 6379SOL    HW120587   0.593   1.778   1.874  0.0287  1.0099  0.5466
 6379SOL    HW220588   0.733   1.772   1.932 -0.3250  0.6609  1.3747
 6380SOL     OW20589   5.052   2.036   1.292 -0.0496 -0.0484  0.7053
 6380SOL    HW120590   5.109   2.112   1.288  0.3521 -0.2945  1.6064
 6380SOL    HW220591   5.018   2.035   1.381 -1.9878  0.4642  0.0337
 6381SOL     OW20592   5.026   3.159   3.533 -0.0725  0.6571  0.4381
 6381SOL    HW120593   5.090   3.226   3.557 -0.2705  0.4792  1.5025
 6381SOL    HW220594   4.942   3.195   3.561 -0.1203 -0.2477  1.5504
 6382SOL     OW20595   4.315   6.697   3.285 -0.6199 -0.1653 -0.2941
 6382SOL    HW120596   4.379   6.694   3.356  1.6622  2.7269 -1.9886
 6382SOL    HW220597   4.234   6.726   3.327  0.1181 -0.4091  1.3919
 6383SOL     OW20598   5.499   0.832   5.840 -0.3244 -0.0165  0.5517
 6383SOL    HW120599   5.471   0.864   5.754 -1.6281 -0.3807  0.8167
 6383SOL    HW220600   5.455   0.747   5.849  0.1839 -0.2054  1.3835
 6384SOL     OW20601   6.555   2.875   3.665 -0.1140  0.2415  0.1741
 6384SOL    HW120602   6.549   2.874   3.569  0.5856  0.2322  0.1242
 6384SOL    HW220603   6.504   2.951   3.692  1.6655  1.6797 -0.3697
 6385SOL     OW20604   5.470   0.271   5.867  0.1278 -0.2936  0.0945
 6385SOL    HW120605   5.412   0.275   5.791 -0.2094 -0.8640  0.3168
 6385SOL    HW220606   5.453   0.185   5.906 -0.1256  0.2310  1.1582
 6386SOL     OW20607   2.778   2.943   6.361 -0.0571 -0.0634  1.1204
 6386SOL    HW120608   2.763   2.897   6.278  4.6575  0.4141 -0.2881
 6386SOL    HW220609   2.740   3.030   6.347  0.9462  0.1246 -0.7455
 6387SOL     OW20610   3.985   6.552   2.707 -0.2500  0.2159  0.0847
 6387SOL    HW120611   4.003   6.462   2.681 -1.3648 -0.0971  0.3535
 6387SOL    HW220612   3.890   6.560   2.705 -0.3396  0.6266  2.4700
 6388SOL     OW20613   5.634   4.751   4.279 -0.4415 -0.0578  0.1384
 6388SOL    HW120614   5.582   4.670   4.277 -0.8383  0.2036 -0.6884
 6388SOL    HW220615   5.615   4.794   4.196 -0.0501  0.7789  0.4648
 6389SOL     OW20616   4.879   3.715   0.292 -0.2193 -0.0507  0.2124
 6389SOL    HW120617   4.888   3.624   0.319  1.1877  0.3066  1.1131
 6389SOL    HW220618   4.792   3.741   0.323 -0.3594 -0.8924  0.5560
 6390SOL     OW20619   0.442   0.079   5.858 -0.9083 -0.3057  0.0555
 6390SOL    HW120620   0.498   0.004   5.838  0.9491  0.6261  1.4127
 6390SOL    HW220621   0.410   0.062   5.947  0.1083  0.7683  0.6677
 6391SOL     OW20622   1.583   3.760   6.382  0.3331  0.1930  0.3308
 6391SOL    HW120623   1.625   3.757   6.296 -0.3465  1.4116 -0.0762
 6391SOL    HW220624   1.600   3.849   6.414 -0.8849  0.3179  0.6885
 6392SOL     OW20625   2.063   6.506   0.394  0.4907 -0.1745 -0.2985
 6392SOL    HW120626   2.142   6.503   0.448 -0.4143  1.2485  1.1645
 6392SOL    HW220627   2.076   6.436   0.329  2.8891 -0.0354 -0.0450
 6393SOL     OW20628   3.220   2.532   6.305 -0.6243 -0.0668 -0.0241
 6393SOL    HW120629   3.263   2.583   6.236 -1.2468  0.0279 -0.3440
 6393SOL    HW220630   3.229   2.441   6.276 -2.0674  0.0484 -0.9317
 6394SOL     OW20631   7.116   7.083   0.117 -0.5016 -0.2963  0.4960
 6394SOL    HW120632   7.123   7.045   0.029 -1.4046 -0.6165  0.5568
 6394SOL    HW220633   7.207   7.090   0.147 -0.1948 -0.3249 -0.4011
 6395SOL     OW20634   3.803   7.138   1.905 -0.1982  0.1792  0.2091
 6395SOL    HW120635   3.709   7.120   1.915 -0.1378 -0.9476 -0.9414
 6395SOL    HW220636   3.840   7.056   1.872  1.5634 -0.0384  2.4948
 6396SOL     OW20637   1.287   5.121   2.195 -0.0261 -0.3576 -0.5015
 6396SOL    HW120638   1.264   5.158   2.281  0.6496 -1.8905  0.3740
 6396SOL    HW220639   1.215   5.060   2.176 -0.3623  0.2425 -1.2279
 6397SOL     OW20640   0.070   6.878   2.162 -0.4538 -0.2985  0.3993
 6397SOL    HW120641   0.132   6.873   2.089  0.8845 -1.5153  1.5553
 6397SOL    HW220642   0.121   6.910   2.236 -1.5775  0.1194  1.0285
 6398SOL     OW20643   4.476   2.547   1.361  0.2276  0.1726  0.2410
 6398SOL    HW120644   4.521   2.509   1.437 -0.9274 -0.6044  0.5537
 6398SOL    HW220645   4.496   2.641   1.367 -0.2696  0.2200  1.8190
 6399SOL     OW20646   5.831   6.503   4.400 -0.2729 -0.1194  0.0606
 6399SOL    HW120647   5.879   6.585   4.393  0.7183 -0.7497 -0.8318
 6399SOL    HW220648   5.746   6.528   4.437  1.1139  0.8741  2.8488
 6400SOL     OW20649   6.322   5.710   5.849 -0.3891  0.0688  0.1818
 6400SOL    HW120650   6.233   5.680   5.862 -0.3755  0.3532  0.9456
 6400SOL    HW220651   6.353   5.736   5.936 -0.1561  1.6160 -0.3278
 6401SOL     OW20652   5.235   1.138   3.827 -0.9324 -0.0682  0.2267
 6401SOL    HW120653   5.187   1.096   3.899 -0.0532 -4.4322 -1.4382
 6401SOL    HW220654   5.170   1.144   3.757 -1.2793  2.4665  0.6660
 6402SOL     OW20655   1.280   0.270   5.173  0.1060  0.4143 -0.3330
 6402SOL    HW120656   1.206   0.315   5.215  1.3157  2.9235 -0.6588
 6402SOL    HW220657   1.255   0.263   5.081 -0.1861  0.2493 -0.2410
 6403SOL     OW20658   0.910   2.588   2.673 -0.0340 -0.1951 -0.0524
 6403SOL    HW120659   0.844   2.543   2.725 -0.0895 -1.7849 -1.4367
 6403SOL    HW220660   0.983   2.526   2.666  0.5405  0.5203 -0.7187
 6404SOL     OW20661   3.869   0.130   3.567  0.1074 -0.1517  0.2658
 6404SOL    HW120662   3.775   0.114   3.558  0.0199 -0.3912  1.4874
 6404SOL    HW220663   3.893   0.089   3.649  1.4139 -0.6032 -0.3161
 6405SOL     OW20664   0.961   1.046   0.555  0.5837 -0.0012  0.2517
 6405SOL    HW120665   0.920   1.082   0.634 -1.7864 -2.3758  0.2724
 6405SOL    HW220666   1.002   0.965   0.584  0.6368 -0.3436 -0.7438
 6406SOL     OW20667   4.526   0.159   2.346 -0.2823 -0.2718  0.0891
 6406SOL    HW120668   4.523   0.069   2.314 -0.3100 -0.1721 -0.1956
 6406SOL    HW220669   4.439   0.194   2.326  0.4706  0.5525 -1.9983
 6407SOL     OW20670   0.670   6.089   6.294 -1.0074  0.3072  0.3003
 6407SOL    HW120671   0.645   6.031   6.222  0.6232 -2.4737  1.8186
 6407SOL    HW220672   0.756   6.122   6.270 -0.5429 -0.4774  0.8318
 6408SOL     OW20673   5.129   5.722   1.214  0.0350  0.2865  0.1415
 6408SOL    HW120674   5.101   5.803   1.172  4.3860  1.2741 -1.4724
 6408SOL    HW220675   5.132   5.658   1.143  0.4946 -0.1296  0.5277
 6409SOL     OW20676   0.469   5.808   4.751 -0.3147 -0.1275 -0.3219
 6409SOL    HW120677   0.450   5.886   4.699  0.6638  1.3084  1.3867
 6409SOL    HW220678   0.491   5.842   4.837  0.5865 -2.2923  0.3444
 6410SOL     OW20679   7.005   6.696   6.587 -0.0281  0.1501  0.0593
 6410SOL    HW120680   7.040   6.651   6.510 -0.2240  0.9011 -0.4768
 6410SOL    HW220681   6.976   6.625   6.645 -0.7675 -0.4182 -0.9788
 6411SOL     OW20682   3.805   3.961   1.040  0.1745  0.2648 -0.0093
 6411SOL    HW120683   3.884   3.964   0.986  0.8562  2.0002  0.9941
 6411SOL    HW220684   3.743   4.019   0.994 -0.1593 -0.2916 -0.2639
 6412SOL     OW20685   5.999   6.207   5.932  0.3312 -0.2237 -0.1786
 6412SOL    HW120686   5.972   6.115   5.925  1.6534 -0.6254 -0.3688
 6412SOL    HW220687   6.057   6.208   6.008 -0.0341  0.5550  0.0941
 6413SOL     OW20688   0.842   0.402   1.415  0.0939 -0.2212 -0.1524
 6413SOL    HW120689   0.912   0.455   1.375 -0.7730 -0.1378 -1.6442
 6413SOL    HW220690   0.762   0.452   1.398 -0.4946 -0.9766  0.3309
 6414SOL     OW20691   4.402   1.584   1.785 -0.1723 -0.1699  0.4235
 6414SOL    HW120692   4.445   1.530   1.719  1.1473  0.8936  0.3840
 6414SOL    HW220693   4.314   1.600   1.750 -0.4236 -1.8307  0.2014
 6415SOL     OW20694   0.145   3.293   1.440  0.6918 -0.0375 -0.3113
 6415SOL    HW120695   0.162   3.325   1.528 -2.4697  0.8395  0.1161
 6415SOL    HW220696   0.081   3.223   1.452  0.3463 -0.0247 -1.8836
 6416SOL     OW20697   1.016   6.370   1.653 -0.3901  0.0804 -0.1808
 6416SOL    HW120698   0.989   6.447   1.703 -0.4917  0.8051 -1.3227
 6416SOL    HW220699   1.094   6.398   1.606  0.2861 -0.9024  0.3331
 6417SOL     OW20700   5.575   5.057   1.700  0.4331 -0.3725 -0.2108
 6417SOL    HW120701   5.644   5.105   1.654 -2.0770  2.3289 -1.4513
 6417SOL    HW220702   5.575   5.094   1.788 -0.7818  1.2936 -0.8551
 6418SOL     OW20703   0.464   1.721   4.284 -0.1829 -0.3697 -0.4993
 6418SOL    HW120704   0.396   1.762   4.337  1.0268  0.6339  0.3148
 6418SOL    HW220705   0.533   1.697   4.346 -0.0732 -2.0423 -1.2017
 6419SOL     OW20706   5.946   4.339   1.681 -0.0019 -0.2122  0.7076
 6419SOL    HW120707   5.966   4.372   1.593  0.0063  0.5417  0.9851
 6419SOL    HW220708   5.859   4.375   1.700 -0.9109 -2.0521  0.2006
 6420SOL     OW20709   2.761   4.176   6.559 -0.1263 -0.0090 -0.5046
 6420SOL    HW120710   2.739   4.083   6.558 -1.0694  0.2050 -1.4391
 6420SOL    HW220711   2.856   4.178   6.548  0.0380 -0.8823  0.6572
 6421SOL     OW20712   1.739   6.568   5.770 -0.4292 -0.3667  0.4800
 6421SOL    HW120713   1.788   6.644   5.801 -0.3739 -0.6203  1.0338
 6421SOL    HW220714   1.788   6.538   5.693  1.6443 -1.9375  2.2639
 6422SOL     OW20715   0.507   4.846   0.398 -0.5039  0.3350  0.1999
 6422SOL    HW120716   0.567   4.811   0.463 -0.6071 -0.8439 -0.3094
 6422SOL    HW220717   0.545   4.820   0.314 -0.1558  2.1791 -0.2586
 6423SOL     OW20718   2.161   1.486   6.860  0.0052  0.7276 -0.5924
 6423SOL    HW120719   2.205   1.428   6.798  0.1660 -1.1340  1.1334
 6423SOL    HW220720   2.153   1.433   6.940 -1.1499  2.6334  0.6320
 6424SOL     OW20721   6.032   5.930   4.614  0.4490 -0.6636  0.4161
 6424SOL    HW120722   5.996   5.868   4.551 -0.1784  1.0291 -0.9658
 6424SOL    HW220723   6.095   5.982   4.564  0.0469  0.6335  1.2026
 6425SOL     OW20724   3.026   4.001   5.097  0.2518 -0.7540  0.3031
 6425SOL    HW120725   3.028   4.000   5.001 -0.9550  0.3628  0.2379
 6425SOL    HW220726   2.943   3.958   5.119  0.7402 -1.4202  0.8674
 6426SOL     OW20727   1.398   5.869   6.659 -0.0052  0.3768 -0.0807
 6426SOL    HW120728   1.320   5.841   6.611  0.8902 -1.9659 -0.3307
 6426SOL    HW220729   1.381   5.846   6.750  1.0765 -1.9798 -0.4127
 6427SOL     OW20730   3.226   3.841   3.199 -0.1936 -0.2081 -0.0213
 6427SOL    HW120731   3.266   3.861   3.284 -1.5828  0.7425  0.4475
 6427SOL    HW220732   3.267   3.904   3.139  0.7624 -0.8550 -0.0835
 6428SOL     OW20733   6.545   4.339   4.566  0.3218  0.9068 -0.1608
 6428SOL    HW120734   6.492   4.349   4.487 -0.9966  1.0841  0.7147
 6428SOL    HW220735   6.531   4.248   4.593  2.4927  0.1563 -1.2761
 6429SOL     OW20736   0.786   2.142   0.362 -0.3092 -0.0405  0.5105
 6429SOL    HW120737   0.786   2.098   0.447  2.5999  1.1410  1.2609
 6429SOL    HW220738   0.741   2.225   0.378  2.9484  1.6585  1.9727
 6430SOL     OW20739   0.979   4.074   4.176 -0.0073 -0.0403  0.1639
 6430SOL    HW120740   1.073   4.070   4.193  0.2661  0.2132 -1.1314
 6430SOL    HW220741   0.969   4.028   4.093 -1.0803 -0.3627  0.4703
 6431SOL     OW20742   4.699   0.572   6.981 -0.1915 -0.2811 -0.3116
 6431SOL    HW120743   4.661   0.545   6.898  1.3884 -0.6670 -0.9323
 6431SOL    HW220744   4.651   0.521   7.047 -2.7617  1.3974 -0.7548
 6432SOL     OW20745   2.898   5.478   2.039  0.4526  0.2976 -0.2897
 6432SOL    HW120746   2.991   5.489   2.055  0.2457  0.6279  0.7369
 6432SOL    HW220747   2.855   5.510   2.118 -0.4807 -1.2424 -0.1226
 6433SOL     OW20748   0.376   6.718   5.137 -0.0939 -0.7266  0.1160
 6433SOL    HW120749   0.338   6.738   5.051  0.2880  1.4747  0.4245
 6433SOL    HW220750   0.308   6.666   5.181 -1.5626  0.6809 -0.4042
 6434SOL     OW20751   0.191   2.777   5.290 -0.1336 -0.4697  0.3851
 6434SOL    HW120752   0.249   2.800   5.217 -0.0944  0.6399  0.7366
 6434SOL    HW220753   0.246   2.725   5.348  0.3084 -0.0451  0.3626
 6435SOL     OW20754   5.698   0.047   2.722  0.0742 -0.8459 -0.7895
 6435SOL    HW120755   5.652  -0.005   2.656  0.1944 -0.6083 -1.0642
 6435SOL    HW220756   5.644   0.124   2.734 -0.7281 -1.5729  0.4965
 6436SOL     OW20757   3.168   2.982   3.323 -0.1072 -0.3066  0.0308
 6436SOL    HW120758   3.093   2.931   3.290 -1.3637  1.3870  0.1449
 6436SOL    HW220759   3.232   2.981   3.252 -0.2054 -1.7884 -0.0695
 6437SOL     OW20760   4.512   4.587   2.618 -0.7509 -0.0997  0.1343
 6437SOL    HW120761   4.476   4.656   2.674 -2.4823 -0.5773 -0.3431
 6437SOL    HW220762   4.438   4.530   2.598 -0.0161 -0.4223 -1.9569
 6438SOL     OW20763   4.278   1.035   0.620 -0.2919  0.4360  0.1975
 6438SOL    HW120764   4.206   1.032   0.558  0.3664  0.3612 -0.5720
 6438SOL    HW220765   4.353   1.065   0.569 -0.3248  3.0903  1.5285
 6439SOL     OW20766   0.895   2.716   6.604 -0.2880  0.4066 -0.2942
 6439SOL    HW120767   0.857   2.628   6.597  1.3246 -0.1995 -2.2332
 6439SOL    HW220768   0.955   2.710   6.679 -2.4771  0.8482  1.6095
 6440SOL     OW20769   1.467   1.696   4.549 -0.4653  0.2211 -0.6080
 6440SOL    HW120770   1.546   1.670   4.596 -0.9045 -2.4444 -1.2039
 6440SOL    HW220771   1.463   1.791   4.561  0.4125 -0.0674  3.1584
 6441SOL     OW20772   2.964   2.861   4.163 -0.4383  0.4273 -0.2973
 6441SOL    HW120773   2.883   2.814   4.185 -0.9606 -0.5280 -3.6748
 6441SOL    HW220774   3.032   2.794   4.165  0.1353  1.0223  1.5382
 6442SOL     OW20775   4.962   5.058   0.405 -0.1692  0.2376  0.2259
 6442SOL    HW120776   5.015   5.129   0.442  0.3778 -0.1601  0.2077
 6442SOL    HW220777   4.922   5.097   0.327  0.7386  0.2961 -0.2115
 6443SOL     OW20778   4.057   0.712   0.289  0.4012  0.1877  0.0163
 6443SOL    HW120779   4.133   0.662   0.319  0.3608 -0.5414 -1.0352
 6443SOL    HW220780   3.986   0.685   0.347  0.4107 -0.9045 -0.4536
 6444SOL     OW20781   2.678   6.774   1.393  0.0015  0.2492  0.0978
 6444SOL    HW120782   2.713   6.755   1.306  0.0488  2.5309 -0.4381
 6444SOL    HW220783   2.648   6.865   1.388 -1.4340 -0.0473  2.0215
 6445SOL     OW20784   5.194   4.323   2.359  0.1569  0.5936 -0.1517
 6445SOL    HW120785   5.215   4.414   2.339 -1.4332  1.3142  1.2189
 6445SOL    HW220786   5.272   4.291   2.406  1.3031  0.7654 -1.8344
 6446SOL     OW20787   6.977   1.814   6.451 -0.2408  0.2794 -0.7962
 6446SOL    HW120788   7.039   1.847   6.386 -1.6188  0.7047 -1.9684
 6446SOL    HW220789   7.018   1.735   6.486  1.5051  1.2175 -0.6018
 6447SOL     OW20790   3.813   6.175   2.109 -0.0895  0.2066  0.8379
 6447SOL    HW120791   3.889   6.201   2.162  0.6975 -1.2047  0.4481
 6447SOL    HW220792   3.739   6.219   2.151  0.8717  1.2591  1.4938
 6448SOL     OW20793   6.794   4.099   3.483 -0.2826 -0.3765  0.5589
 6448SOL    HW120794   6.815   4.037   3.552 -0.1844  0.6701  1.4933
 6448SOL    HW220795   6.878   4.126   3.447  0.0145  2.2128  2.8782
 6449SOL     OW20796   5.092   5.577   3.275  0.0814  0.6255  0.5001
 6449SOL    HW120797   5.164   5.599   3.215  1.2582  1.0099  1.9995
 6449SOL    HW220798   5.131   5.516   3.338  0.0090  3.0702  3.1060
 6450SOL     OW20799   6.657   3.049   0.427  0.1454 -1.1445 -0.7828
 6450SOL    HW120800   6.683   2.958   0.445 -0.3380 -1.2152 -0.4125
 6450SOL    HW220801   6.710   3.101   0.487 -1.4075 -1.3758  0.9088
 6451SOL     OW20802   2.786   1.437   2.831 -0.1302  0.2882 -0.3693
 6451SOL    HW120803   2.724   1.365   2.820 -0.6647  0.8021 -0.7192
 6451SOL    HW220804   2.798   1.473   2.743  0.4929  0.3414 -0.2715
 6452SOL     OW20805   2.524   5.946   2.868  0.2652  0.0782 -0.0139
 6452SOL    HW120806   2.506   6.026   2.917 -1.9054 -0.4215  0.1106
 6452SOL    HW220807   2.518   5.876   2.933  1.3074 -0.2826 -0.2815
 6453SOL     OW20808   5.819   5.895   2.208 -0.1711 -0.3305 -0.3199
 6453SOL    HW120809   5.845   5.870   2.296  1.4656  1.0286 -0.3597
 6453SOL    HW220810   5.901   5.894   2.157 -0.5948  1.4823 -1.1363
 6454SOL     OW20811   4.925   4.200   1.974  0.3742  0.4024  0.2347
 6454SOL    HW120812   5.014   4.193   2.007 -0.5658  0.4202  3.0531
 6454SOL    HW220813   4.888   4.112   1.986 -0.6213  0.9324  1.2718
 6455SOL     OW20814   5.123   4.963   0.671 -0.2703  0.0033  0.0880
 6455SOL    HW120815   5.155   4.917   0.593  0.4881 -0.1712  0.4986
 6455SOL    HW220816   5.028   4.966   0.659 -0.0765  1.5182 -1.7106
 6456SOL     OW20817   6.008   5.626   2.323 -0.0365  0.0385  0.2654
 6456SOL    HW120818   6.098   5.639   2.294 -0.0529  1.4261  0.7786
 6456SOL    HW220819   5.996   5.689   2.394 -1.0768 -0.8885  0.9476
 6457SOL     OW20820   0.261   1.576   4.931  0.5389  0.4994  0.5575
 6457SOL    HW120821   0.238   1.563   5.023  0.7565 -0.4024  0.4938
 6457SOL    HW220822   0.223   1.661   4.908  1.3992  1.2338  1.7682
 6458SOL     OW20823   3.272   4.952   4.984  0.1721 -0.3922  0.0992
 6458SOL    HW120824   3.237   5.037   5.009  0.6496  0.2430 -1.2674
 6458SOL    HW220825   3.301   4.964   4.893  0.8689 -1.8226  0.1026
 6459SOL     OW20826   6.378   5.870   6.331 -0.1070  0.8880  0.0839
 6459SOL    HW120827   6.435   5.830   6.397  1.3332  0.5527 -1.2977
 6459SOL    HW220828   6.372   5.804   6.262  1.2583  2.4584 -1.6544
 6460SOL     OW20829   2.700   0.335   2.991  1.0413 -0.4894 -0.4398
 6460SOL    HW120830   2.717   0.409   2.933  1.4134  0.7125  1.1387
 6460SOL    HW220831   2.724   0.258   2.939 -0.9167  0.3059 -2.7255
 6461SOL     OW20832   4.523   3.835   5.385  0.3016 -0.4107 -0.2245
 6461SOL    HW120833   4.516   3.846   5.480  2.0684 -0.7425 -0.0412
 6461SOL    HW220834   4.497   3.921   5.350 -0.2050 -0.2354  0.5478
 6462SOL     OW20835   2.718   2.477   2.914 -0.3274 -0.0347 -0.2961
 6462SOL    HW120836   2.749   2.522   2.835  0.4209 -1.4369 -0.8334
 6462SOL    HW220837   2.788   2.493   2.978  0.4145 -1.2125 -0.7856
 6463SOL     OW20838   4.880   2.018   2.729 -0.3092  0.1550  0.3410
 6463SOL    HW120839   4.823   2.034   2.653 -0.1722 -1.4197 -0.1345
 6463SOL    HW220840   4.955   2.076   2.716 -0.0088 -0.5094 -1.0632
 6464SOL     OW20841   0.535   4.203   2.920 -0.4403  0.1115 -0.0494
 6464SOL    HW120842   0.578   4.247   2.846 -0.9717 -0.1397 -0.5100
 6464SOL    HW220843   0.592   4.223   2.995  0.1182  0.3470 -0.5230
 6465SOL     OW20844   4.045   2.760   5.887  0.5215  0.0793 -0.4919
 6465SOL    HW120845   4.128   2.736   5.928 -0.0295  0.4214  0.9004
 6465SOL    HW220846   4.066   2.836   5.833  1.2821 -0.3959 -0.8755
 6466SOL     OW20847   0.785   6.016   4.885  0.2417  0.1622  0.1913
 6466SOL    HW120848   0.710   6.008   4.944 -0.2150 -1.1881 -0.5457
 6466SOL    HW220849   0.780   6.106   4.852 -0.7855  0.2249  0.4932
 6467SOL     OW20850   0.087   4.551   6.192  0.1594  0.3256 -0.0162
 6467SOL    HW120851   0.149   4.541   6.120 -0.3140  1.9572 -0.7091
 6467SOL    HW220852   0.139   4.543   6.271  0.9928  0.1668 -0.5741
 6468SOL     OW20853   3.340   5.223   6.971  0.3986 -0.2501 -0.3475
 6468SOL    HW120854   3.333   5.308   6.926  1.3499 -0.8696 -1.7507
 6468SOL    HW220855   3.278   5.167   6.925  1.0321 -0.7671 -0.5823
 6469SOL     OW20856   2.211   1.619   4.606  0.6317 -0.0984  0.6249
 6469SOL    HW120857   2.126   1.589   4.574  0.8854 -0.9101  0.6879
 6469SOL    HW220858   2.256   1.653   4.528  1.1981 -1.9471  0.0892
 6470SOL     OW20859   6.791   1.166   3.842  0.4261 -0.4968  0.2959
 6470SOL    HW120860   6.766   1.209   3.923  0.8544 -1.1688  0.7923
 6470SOL    HW220861   6.819   1.238   3.784  0.3018 -0.0377  0.8024
 6471SOL     OW20862   3.077   1.143   6.174 -0.0708 -0.0784  0.4571
 6471SOL    HW120863   3.124   1.224   6.194 -1.2128  0.6157  0.4352
 6471SOL    HW220864   3.005   1.140   6.238 -1.5742  0.2871 -1.1223
 6472SOL     OW20865   1.537   3.931   1.497  0.3020  0.4028 -0.3241
 6472SOL    HW120866   1.522   3.837   1.509 -0.7655  0.5724 -0.2529
 6472SOL    HW220867   1.515   3.970   1.582 -1.1503  0.9122 -0.8923
 6473SOL     OW20868   0.493   2.674   5.710  0.3075  0.0227  0.0012
 6473SOL    HW120869   0.552   2.598   5.718 -1.3734 -1.4736 -1.2076
 6473SOL    HW220870   0.460   2.688   5.799 -0.3405 -1.5089  0.0234
 6474SOL     OW20871   0.390   4.827   3.142  0.0797 -0.6886 -0.5948
 6474SOL    HW120872   0.323   4.777   3.095 -0.1769  1.2813 -2.4479
 6474SOL    HW220873   0.461   4.838   3.079  0.8436 -0.1180  0.3358
 6475SOL     OW20874   3.908   6.614   3.851 -0.6002  0.2369  0.2510
 6475SOL    HW120875   3.891   6.521   3.837  0.5830 -0.0267  0.4729
 6475SOL    HW220876   3.824   6.650   3.881 -0.4701 -1.2677  2.7198
 6476SOL     OW20877   6.518   2.504   1.093  0.0434 -0.4275 -0.0448
 6476SOL    HW120878   6.443   2.504   1.033  0.7590 -1.4919 -0.9786
 6476SOL    HW220879   6.482   2.471   1.175 -0.4725 -1.1816 -0.5574
 6477SOL     OW20880   3.032   3.161   0.348  0.3086  0.2701 -0.1413
 6477SOL    HW120881   3.092   3.091   0.321  0.0768 -0.0317  0.1260
 6477SOL    HW220882   2.946   3.133   0.316  0.4711  1.2459 -1.5457
 6478SOL     OW20883   4.172   5.633   2.808  0.5646  0.2339 -0.0767
 6478SOL    HW120884   4.196   5.725   2.797 -0.4418  0.3652 -1.3404
 6478SOL    HW220885   4.098   5.635   2.868 -1.2649  0.5464 -2.2228
 6479SOL     OW20886   0.653   6.493   4.670 -0.2486 -0.2195 -0.3579
 6479SOL    HW120887   0.602   6.552   4.614 -0.5114  1.4321  1.5005
 6479SOL    HW220888   0.721   6.549   4.707  0.5265 -1.4998  0.2099
 6480SOL     OW20889   4.582   5.136   0.133  0.2028 -0.7392  0.2449
 6480SOL    HW120890   4.541   5.189   0.202 -0.2225  1.3732 -1.5309
 6480SOL    HW220891   4.511   5.118   0.072  1.0361 -0.6409 -0.7658
 6481SOL     OW20892   5.715   0.830   1.041  0.4785 -0.0873 -0.3371
 6481SOL    HW120893   5.767   0.911   1.040 -0.0168  0.2322 -0.7958
 6481SOL    HW220894   5.761   0.771   0.980  1.0436 -0.2873  0.2754
 6482SOL     OW20895   5.540   2.936   6.010  0.5589 -0.4226  0.3651
 6482SOL    HW120896   5.615   2.876   6.016  0.2663 -0.7602  0.6549
 6482SOL    HW220897   5.464   2.878   5.999  0.3248 -0.0848  0.2010
 6483SOL     OW20898   2.602   0.309   1.895 -0.6350  0.3593  0.2045
 6483SOL    HW120899   2.655   0.239   1.932 -1.0597  0.6179  1.3308
 6483SOL    HW220900   2.653   0.389   1.909 -0.4269  0.3633 -0.5284
 6484SOL     OW20901   4.940   0.224   3.445  0.1872 -0.2385  0.1917
 6484SOL    HW120902   4.876   0.161   3.411  0.5926 -1.8273  2.1813
 6484SOL    HW220903   4.971   0.271   3.367 -1.1168 -1.5646 -1.1999
 6485SOL     OW20904   4.105   3.349   5.612  0.0931 -0.0534  0.0760
 6485SOL    HW120905   4.147   3.355   5.698 -0.5488  0.2902  0.3690
 6485SOL    HW220906   4.072   3.260   5.607 -2.7029  0.7722  1.5511
 6486SOL     OW20907   0.733   4.827   4.280 -0.0841  0.4492 -0.3120
 6486SOL    HW120908   0.735   4.754   4.218 -0.9786 -0.3971  0.6095
 6486SOL    HW220909   0.781   4.795   4.356  0.5235  1.2675 -0.3421
 6487SOL     OW20910   2.597   3.694   0.527  0.3211 -0.0170 -0.4883
 6487SOL    HW120911   2.559   3.767   0.478  0.9230  0.5566 -0.1177
 6487SOL    HW220912   2.614   3.627   0.460 -1.1085 -0.2062 -0.6926
 6488SOL     OW20913   0.945   4.164   6.468 -0.6260  0.5514  0.0679
 6488SOL    HW120914   0.974   4.073   6.463 -0.6262  0.4761  1.3500
 6488SOL    HW220915   1.011   4.213   6.418  0.7251  0.1567  1.4120
 6489SOL     OW20916   3.569   4.074   6.841  0.1637  0.0940  0.1324
 6489SOL    HW120917   3.541   4.127   6.767  0.0900 -1.0595 -0.6943
 6489SOL    HW220918   3.545   4.125   6.918 -1.6520  0.4047 -0.6001
 6490SOL     OW20919   5.676   6.016   0.880  0.5675 -0.3059  0.1034
 6490SOL    HW120920   5.609   5.958   0.844 -0.3890 -1.5866  3.5507
 6490SOL    HW220921   5.758   5.967   0.871 -0.0113 -1.6468  1.6346
 6491SOL     OW20922   3.406   4.796   6.813  0.2696  0.6037  0.2397
 6491SOL    HW120923   3.492   4.832   6.793  0.7550  0.0011  1.1613
 6491SOL    HW220924   3.409   4.777   6.907 -0.9906  0.8867  0.3558
 6492SOL     OW20925   1.122   2.619   5.681  0.3011 -0.4375  1.0716
 6492SOL    HW120926   1.146   2.687   5.743 -0.7111  0.4592  0.5190
 6492SOL    HW220927   1.098   2.667   5.601  1.9463 -1.5624 -0.1645
 6493SOL     OW20928   4.802   5.005   5.736 -0.2529  0.3630  0.1400
 6493SOL    HW120929   4.829   4.948   5.808 -1.3184 -0.4340 -0.0623
 6493SOL    HW220930   4.844   4.968   5.659  1.6140  1.7342  0.4208
 6494SOL     OW20931   2.283   1.187   6.078 -0.7984  0.5803 -0.1417
 6494SOL    HW120932   2.189   1.198   6.060 -0.7416  1.1462 -0.1143
 6494SOL    HW220933   2.312   1.123   6.014 -1.2913  0.0890  0.1157
 6495SOL     OW20934   5.730   4.335   4.229  0.0282 -0.1466 -0.1944
 6495SOL    HW120935   5.814   4.348   4.184  0.3804  0.9029  0.7222
 6495SOL    HW220936   5.739   4.248   4.270  1.0977  0.3800  0.7581
 6496SOL     OW20937   7.044   3.071   4.587  0.0248 -0.3327  0.2980
 6496SOL    HW120938   7.073   3.015   4.515  0.0366  1.5775 -1.2629
 6496SOL    HW220939   7.119   3.077   4.645  0.4552 -0.8613 -0.1948
 6497SOL     OW20940   0.866   2.922   3.403  0.1246  0.4077 -0.1658
 6497SOL    HW120941   0.933   2.990   3.409  1.3534 -0.7159 -0.5971
 6497SOL    HW220942   0.833   2.929   3.314  1.0233 -0.2271 -0.5674
 6498SOL     OW20943   1.567   5.063   2.593 -0.1880 -0.4753  0.6091
 6498SOL    HW120944   1.490   5.027   2.637 -1.1152 -0.1764 -0.7335
 6498SOL    HW220945   1.600   4.991   2.539  0.7618 -0.7392  1.4918
 6499SOL     OW20946   3.639   6.241   6.039 -0.4390  0.2836 -0.2401
 6499SOL    HW120947   3.599   6.310   6.092  1.5688 -0.0844  1.9269
 6499SOL    HW220948   3.623   6.161   6.089  0.6646 -0.2200 -0.6647
 6500SOL     OW20949   6.310   5.994   6.896  0.4232  0.1147  0.5090
 6500SOL    HW120950   6.339   5.982   6.806 -1.1811 -0.2216  0.0020
 6500SOL    HW220951   6.346   6.078   6.922 -0.0118  0.7417 -0.8329
 6501SOL     OW20952   3.963   2.100   3.037  0.0566  0.0645 -0.1226
 6501SOL    HW120953   4.010   2.114   2.955  0.4435  1.1777  0.2629
 6501SOL    HW220954   3.928   2.186   3.059 -0.9952 -0.4644  0.3123
 6502SOL     OW20955   1.634   3.967   1.996 -0.2065 -0.6801  0.8503
 6502SOL    HW120956   1.614   3.877   1.967  1.0088 -0.5661 -0.4623
 6502SOL    HW220957   1.649   3.959   2.090 -0.4636 -1.7919  0.8165
 6503SOL     OW20958   7.113   0.714   1.363 -0.4093  0.7240 -0.1380
 6503SOL    HW120959   7.052   0.752   1.300 -0.8651 -1.0836 -0.8345
 6503SOL    HW220960   7.060   0.657   1.418  0.7857 -2.2981 -1.8781
 6504SOL     OW20961   1.918   0.228   4.979 -0.2856  0.5109  0.2652
 6504SOL    HW120962   1.869   0.260   4.904 -0.5256 -0.2384  0.1034
 6504SOL    HW220963   2.009   0.228   4.950  0.0739  3.2704  1.0173
 6505SOL     OW20964   1.863   5.638   5.649  0.5947 -0.5118 -0.0278
 6505SOL    HW120965   1.809   5.715   5.664  1.5285  0.1421  0.0518
 6505SOL    HW220966   1.925   5.664   5.581  2.3319 -0.4274  1.5014
 6506SOL     OW20967   1.191   6.650   3.189  0.6376 -0.2215 -0.3018
 6506SOL    HW120968   1.227   6.614   3.108 -1.2990 -1.9522 -0.4799
 6506SOL    HW220969   1.225   6.739   3.193  0.3916  0.1212 -3.3173
 6507SOL     OW20970   2.173   4.937   6.407 -0.1695  0.0594  0.1306
 6507SOL    HW120971   2.241   4.874   6.431  0.8563  1.5298  1.2312
 6507SOL    HW220972   2.103   4.923   6.472 -0.3050 -0.4898 -0.1315
 6508SOL     OW20973   4.031   6.662   4.650  0.1324 -0.7142  0.1811
 6508SOL    HW120974   4.021   6.732   4.714  0.0625 -0.6172  0.0656
 6508SOL    HW220975   4.116   6.680   4.609 -0.7086  0.4001 -1.1566
 6509SOL     OW20976   4.498   3.563   5.805 -0.0194 -0.1673  0.6537
 6509SOL    HW120977   4.417   3.549   5.855  0.6213 -1.0286  1.4808
 6509SOL    HW220978   4.472   3.551   5.713 -1.2157  1.4552  0.7452
 6510SOL     OW20979   0.467   4.886   2.106  0.3443 -0.1107  0.2556
 6510SOL    HW120980   0.461   4.805   2.055  0.2897  1.6130 -2.7185
 6510SOL    HW220981   0.545   4.930   2.071 -0.3005  1.6410  0.9222
 6511SOL     OW20982   0.682   0.726   6.110  0.1689 -0.8371 -0.4848
 6511SOL    HW120983   0.611   0.670   6.077  1.0908 -2.1884 -0.2458
 6511SOL    HW220984   0.717   0.768   6.031 -0.9687 -0.0052 -0.5907
 6512SOL     OW20985   1.268   3.649   3.842  0.5446 -0.0984  0.3834
 6512SOL    HW120986   1.225   3.696   3.770 -1.6154  0.0075  1.6343
 6512SOL    HW220987   1.230   3.688   3.921  1.6903 -1.2549  1.5401
 6513SOL     OW20988   1.732   3.424   6.245  0.2233 -0.0988  0.3747
 6513SOL    HW120989   1.649   3.390   6.277  0.9030 -1.1661  1.0651
 6513SOL    HW220990   1.712   3.462   6.160 -0.2288 -4.1794 -1.5400
 6514SOL     OW20991   5.164   1.045   4.790  0.3157 -0.1512  0.0019
 6514SOL    HW120992   5.076   1.012   4.773 -0.4295  1.3454  0.7522
 6514SOL    HW220993   5.197   0.987   4.860  0.3864 -1.4031 -1.0271
 6515SOL     OW20994   6.900   0.595   5.246 -0.1111 -0.0246  0.1968
 6515SOL    HW120995   6.873   0.552   5.327 -0.4121  0.2014  0.2155
 6515SOL    HW220996   6.989   0.563   5.231 -0.8360 -1.8323 -0.5772
 6516SOL     OW20997   0.261   0.595   3.543 -0.2101  0.2321  0.1034
 6516SOL    HW120998   0.285   0.681   3.577 -2.4527  0.6009  0.9168
 6516SOL    HW220999   0.250   0.609   3.448  0.5208  0.5587  0.0598
 6517SOL     OW21000   3.403   6.052   3.808  0.5318 -0.0402 -0.7301
 6517SOL    HW121001   3.456   6.082   3.882 -0.3455 -0.2219 -0.0099
 6517SOL    HW221002   3.339   5.992   3.847 -1.0094  1.1180 -1.3765
 6518SOL     OW21003   6.389   4.992   1.010 -0.1320 -0.8733  0.3086
 6518SOL    HW121004   6.418   5.069   1.058  2.5644 -1.1351 -0.7132
 6518SOL    HW221005   6.366   4.928   1.078 -2.6521  0.7994  1.1654
 6519SOL     OW21006   2.424   3.108   6.716 -0.0217  0.0260 -0.1258
 6519SOL    HW121007   2.480   3.183   6.734 -0.7537  0.7764 -0.8409
 6519SOL    HW221008   2.477   3.050   6.660 -0.2865  1.2480 -1.7362
 6520SOL     OW21009   7.018   7.080   0.801  0.1068 -0.4677 -0.2824
 6520SOL    HW121010   7.007   6.988   0.826 -1.3367 -0.2355  0.0162
 6520SOL    HW221011   7.101   7.105   0.840 -0.8440 -0.8412  2.1943
 6521SOL     OW21012   1.563   3.421   6.904  0.3808  0.2041  0.3209
 6521SOL    HW121013   1.512   3.365   6.846 -2.4554  0.8395  1.9987
 6521SOL    HW221014   1.562   3.507   6.862  2.4938 -0.3375 -0.9642
 6522SOL     OW21015   5.052   5.793   3.468  0.2885 -0.5772 -0.0479
 6522SOL    HW121016   5.034   5.713   3.420 -5.0628 -0.2533  0.7822
 6522SOL    HW221017   5.011   5.862   3.415 -0.3826  0.6461  1.9487
 6523SOL     OW21018   1.509   5.010   0.323 -0.7604  0.8184  0.0528
 6523SOL    HW121019   1.433   5.063   0.345 -0.2780  0.5858  2.5530
 6523SOL    HW221020   1.485   4.921   0.347 -0.3350  0.4447 -0.8586
 6524SOL     OW21021   0.702   0.208   0.314 -0.8582 -0.0076 -0.2451
 6524SOL    HW121022   0.758   0.201   0.236  0.1443 -2.5735  0.5703
 6524SOL    HW221023   0.613   0.214   0.280 -0.4774 -1.5485 -1.6507
 6525SOL     OW21024   5.128   3.156   5.990 -0.1942 -0.2105 -0.1490
 6525SOL    HW121025   5.060   3.090   6.000 -0.5825  0.3520  1.0852
 6525SOL    HW221026   5.083   3.231   5.950 -0.1842 -0.0248  0.1844
 6526SOL     OW21027   6.921   5.022   0.522 -0.1140  0.1574  0.2685
 6526SOL    HW121028   6.924   4.944   0.467 -0.3825 -0.0671  0.5676
 6526SOL    HW221029   6.953   4.991   0.607 -0.1432  0.3918  0.3634
 6527SOL     OW21030   2.687   1.881   1.779  0.2124 -0.7205 -0.4119
 6527SOL    HW121031   2.613   1.828   1.751 -0.1581 -0.4331  0.0014
 6527SOL    HW221032   2.749   1.877   1.706 -0.9905  0.5128 -1.5453
 6528SOL     OW21033   6.412   3.873   7.119  0.6782  0.1907  0.3959
 6528SOL    HW121034   6.386   3.876   7.211  1.3079  1.9446  0.5582
 6528SOL    HW221035   6.490   3.816   7.119  0.4070 -0.1904  0.8679
 6529SOL     OW21036   0.870   6.346   5.450  0.5475  0.5189 -0.2898
 6529SOL    HW121037   0.837   6.263   5.416  0.6443  0.2136  0.3469
 6529SOL    HW221038   0.826   6.356   5.534  1.8008  0.2751  0.4195
 6530SOL     OW21039   2.712   0.321   3.535  0.6954  0.1692 -0.6715
 6530SOL    HW121040   2.685   0.332   3.444 -0.1460 -1.0908 -0.6029
 6530SOL    HW221041   2.757   0.236   3.537  2.5806  1.1087 -0.2859
 6531SOL     OW21042   3.708   6.826   1.733  0.3216  0.3884  0.4220
 6531SOL    HW121043   3.740   6.882   1.662  1.3737  0.4968  0.9704
 6531SOL    HW221044   3.685   6.744   1.689 -1.5264  1.2961 -0.4457
 6532SOL     OW21045   4.641   3.344   1.565 -0.2765  0.5704 -0.7214
 6532SOL    HW121046   4.576   3.294   1.613  0.3730  0.9103  0.5592
 6532SOL    HW221047   4.612   3.435   1.573  1.5970  1.0337  2.0285
 6533SOL     OW21048   4.440   3.798   2.976 -0.3085  0.5358  0.1135
 6533SOL    HW121049   4.471   3.880   3.015  0.4008  0.6123 -0.5837
 6533SOL    HW221050   4.368   3.825   2.919  0.7522  0.8589 -1.1015
 6534SOL     OW21051   4.638   5.447   2.143  0.4398 -0.8772  0.8304
 6534SOL    HW121052   4.575   5.394   2.095 -0.0682 -0.4748  1.0416
 6534SOL    HW221053   4.586   5.520   2.177  1.6650  1.8910 -2.5663
 6535SOL     OW21054   3.938   0.431   3.280  0.5991  0.1274  0.2874
 6535SOL    HW121055   3.948   0.381   3.199 -0.0724 -0.9754  0.8728
 6535SOL    HW221056   4.012   0.404   3.335 -0.2977 -0.9915  0.9817
 6536SOL     OW21057   6.100   3.716   1.632  0.2359 -0.0396  0.3881
 6536SOL    HW121058   6.132   3.806   1.638  2.4442 -0.7643  0.2987
 6536SOL    HW221059   6.036   3.709   1.702  1.6817  0.9720  1.8850
 6537SOL     OW21060   6.802   6.328   0.679  0.1213  0.0008 -0.0341
 6537SOL    HW121061   6.891   6.360   0.669  1.1659 -2.7297 -0.2250
 6537SOL    HW221062   6.789   6.270   0.604 -2.0010  0.6253 -0.2237
 6538SOL     OW21063   6.886   1.199   6.738  0.3562 -0.0158  1.3719
 6538SOL    HW121064   6.873   1.273   6.679  2.3791  2.0055  3.2594
 6538SOL    HW221065   6.809   1.199   6.794 -1.0674 -1.2981 -0.4304
 6539SOL     OW21066   2.698   1.858   3.942 -0.2938 -0.1319 -0.3892
 6539SOL    HW121067   2.634   1.795   3.977  0.0200 -0.8194 -1.0177
 6539SOL    HW221068   2.655   1.893   3.864 -0.9598  1.3374  0.6018
 6540SOL     OW21069   1.850   7.010   6.034 -0.1375 -0.0714 -0.1121
 6540SOL    HW121070   1.756   7.004   6.014 -0.8281  1.2329  2.3725
 6540SOL    HW221071   1.874   7.099   6.008  1.1888 -1.1918 -3.2574
 6541SOL     OW21072   6.390   0.510   3.794 -0.1149 -0.2189  0.0027
 6541SOL    HW121073   6.381   0.417   3.816  2.3249 -0.9074 -1.5593
 6541SOL    HW221074   6.313   0.529   3.741 -0.4664 -1.4487  0.0310
 6542SOL     OW21075   1.490   4.576   5.302  0.3095  0.0115 -0.1303
 6542SOL    HW121076   1.583   4.555   5.310  0.1660 -1.0839 -1.0775
 6542SOL    HW221077   1.445   4.495   5.329 -0.3087 -0.2626 -1.8757
 6543SOL     OW21078   4.792   1.222   5.340  0.8264  0.5589  0.0487
 6543SOL    HW121079   4.720   1.159   5.347  1.5622 -0.8555 -3.1649
 6543SOL    HW221080   4.748   1.305   5.320 -0.0351  0.6149  1.9521
 6544SOL     OW21081   2.529   1.918   5.778  0.5355  0.0105 -0.3703
 6544SOL    HW121082   2.457   1.937   5.838  1.1952 -0.2737  0.5395
 6544SOL    HW221083   2.606   1.954   5.821  0.7955  1.4452 -1.9224
 6545SOL     OW21084   6.991   0.831   6.334  0.3424  0.4514  0.2240
 6545SOL    HW121085   6.949   0.916   6.335  0.2298  0.3990 -0.0039
 6545SOL    HW221086   7.075   0.845   6.290  0.2481  0.4103  0.0293
 6546SOL     OW21087   1.199   6.494   7.062 -0.1414  0.6185  0.0489
 6546SOL    HW121088   1.286   6.482   7.024  0.4305  0.6920  1.2699
 6546SOL    HW221089   1.179   6.410   7.103 -1.3989  0.0475 -1.6032
 6547SOL     OW21090   2.901   4.227   2.787 -0.2914  0.0153  0.1349
 6547SOL    HW121091   2.807   4.232   2.771 -0.2217  2.5695  0.0674
 6547SOL    HW221092   2.909   4.221   2.882 -0.5406  1.4665  0.2673
 6548SOL     OW21093   2.448   5.531   4.801  0.0445  0.2868  0.7127
 6548SOL    HW121094   2.387   5.585   4.851 -0.7808 -0.7682  0.8755
 6548SOL    HW221095   2.504   5.490   4.866  1.1306  1.4376  0.5508
 6549SOL     OW21096   3.240   2.988   6.373 -0.0017  0.0831  0.0035
 6549SOL    HW121097   3.308   2.984   6.441 -0.5401 -2.0991  0.5100
 6549SOL    HW221098   3.161   2.956   6.417 -1.2800  2.0911 -0.7149
 6550SOL     OW21099   5.835   0.855   6.763  0.7089  0.0433 -0.1471
 6550SOL    HW121100   5.761   0.874   6.821  1.9998  1.6018  1.0772
 6550SOL    HW221101   5.836   0.760   6.757 -0.9641 -0.0543  0.3518
 6551SOL     OW21102   5.563   6.413   2.511 -0.4292 -0.5969  0.0310
 6551SOL    HW121103   5.481   6.383   2.471 -0.0842 -1.2422 -0.2097
 6551SOL    HW221104   5.559   6.382   2.601 -0.5405 -0.4454  0.0790
 6552SOL     OW21105   1.805   3.001   6.035 -0.1596 -0.2982  0.0535
 6552SOL    HW121106   1.850   2.922   6.062  1.3518  0.4688 -0.1254
 6552SOL    HW221107   1.813   3.003   5.940  0.8839  0.6587  0.1399
 6553SOL     OW21108   5.442   4.307   4.941  0.3355  0.0624  0.1942
 6553SOL    HW121109   5.431   4.397   4.972  3.0858  0.9266 -1.0717
 6553SOL    HW221110   5.482   4.315   4.855 -0.5701 -2.3924 -0.5602
 6554SOL     OW21111   2.768   5.929   5.826 -0.3485 -0.0772  0.2456
 6554SOL    HW121112   2.744   5.944   5.917 -1.9435 -0.5195 -0.0756
 6554SOL    HW221113   2.708   5.860   5.796 -1.5986  1.7872 -1.8399
 6555SOL     OW21114   0.669   3.874   0.336 -0.0957 -0.2246 -0.1293
 6555SOL    HW121115   0.633   3.959   0.360 -0.1483 -0.3250  0.1567
 6555SOL    HW221116   0.756   3.893   0.303 -0.9098  0.1853 -2.1850
 6556SOL     OW21117   4.920   3.613   6.910  0.0749 -0.1658 -0.1324
 6556SOL    HW121118   4.929   3.647   6.821  0.0617 -0.8532 -0.4025
 6556SOL    HW221119   4.951   3.684   6.966  2.6173 -0.6648 -0.7931
 6557SOL     OW21120   5.691   0.030   4.265 -0.4577  0.0029 -0.1756
 6557SOL    HW121121   5.653   0.051   4.351  2.3434  0.2100  1.1277
 6557SOL    HW221122   5.698  -0.065   4.265  0.2863  0.0524  0.1956
 6558SOL     OW21123   7.141   3.705   3.681 -0.1650  0.0097 -0.2650
 6558SOL    HW121124   7.202   3.695   3.608 -2.0982 -1.2138 -1.8086
 6558SOL    HW221125   7.116   3.797   3.679  0.2741  0.1239 -0.7322
 6559SOL     OW21126   1.591   4.256   4.162  0.1301 -0.2763 -0.1023
 6559SOL    HW121127   1.678   4.270   4.198  0.3667 -1.1662 -0.3073
 6559SOL    HW221128   1.540   4.219   4.234 -0.2432  0.7233  0.1735
 6560SOL     OW21129   1.742   2.924   0.690  0.0220 -0.0800  0.1703
 6560SOL    HW121130   1.822   2.910   0.640  0.6935 -0.8453  1.3970
 6560SOL    HW221131   1.677   2.867   0.649  0.2711  0.0682 -0.4435
 6561SOL     OW21132   4.467   0.516   2.805 -0.1155 -0.1119  0.3395
 6561SOL    HW121133   4.384   0.560   2.822  0.3968  0.5858  1.1380
 6561SOL    HW221134   4.533   0.583   2.822  0.6120 -0.6599 -0.2686
 6562SOL     OW21135   2.118   7.140   2.406  0.5942 -0.2725 -0.5012
 6562SOL    HW121136   2.140   7.115   2.316  0.7706 -1.6466 -0.0896
 6562SOL    HW221137   2.085   7.230   2.398  0.9344 -0.2447 -1.8853
 6563SOL     OW21138   4.538   3.987   3.683  0.0397  0.1778 -0.5780
 6563SOL    HW121139   4.508   4.065   3.730 -2.1893 -0.4317 -0.8955
 6563SOL    HW221140   4.467   3.924   3.692 -0.7540  0.1278 -4.9325
 6564SOL     OW21141   6.126   0.528   0.406 -0.1457  0.0154 -0.0490
 6564SOL    HW121142   6.084   0.609   0.435 -0.5261  0.4907 -1.8243
 6564SOL    HW221143   6.062   0.459   0.427 -1.2975  0.5836 -1.5312
 6565SOL     OW21144   1.443   2.293   3.025  0.4773  0.3239 -0.2177
 6565SOL    HW121145   1.375   2.352   3.056  0.6739  1.1380 -1.2674
 6565SOL    HW221146   1.525   2.342   3.035  0.8110 -0.2983  0.1855
 6566SOL     OW21147   3.874   4.067   6.308  0.3294  0.6238 -0.1776
 6566SOL    HW121148   3.948   4.126   6.303  0.2158  0.7614 -0.2563
 6566SOL    HW221149   3.833   4.086   6.392  2.1781 -1.6107  1.3683
 6567SOL     OW21150   3.828   5.597   6.217 -0.3731 -0.2460  0.1570
 6567SOL    HW121151   3.894   5.599   6.148 -1.1157  0.7942 -0.5554
 6567SOL    HW221152   3.857   5.528   6.276  1.4986  0.3522  0.0130
 6568SOL     OW21153   0.163   2.196   2.716 -0.0955  0.2751  0.0527
 6568SOL    HW121154   0.213   2.255   2.773 -0.0826 -1.1088  1.5366
 6568SOL    HW221155   0.123   2.133   2.776  0.2333 -1.4892 -1.5123
 6569SOL     OW21156   5.629   0.550   6.202  0.2810 -0.2889  0.1949
 6569SOL    HW121157   5.677   0.474   6.235  0.9032 -0.5243 -1.1702
 6569SOL    HW221158   5.666   0.625   6.248 -0.5431 -0.8233  1.7815
 6570SOL     OW21159   3.252   3.147   6.799  0.0603 -0.4227 -0.0039
 6570SOL    HW121160   3.221   3.183   6.715 -1.2959 -1.0171  0.2099
 6570SOL    HW221161   3.346   3.135   6.787  0.1769  1.0937 -0.8491
 6571SOL     OW21162   3.820   5.536   2.472 -0.1835 -0.7484 -0.1388
 6571SOL    HW121163   3.767   5.611   2.449  0.2926 -0.6616 -0.9924
 6571SOL    HW221164   3.910   5.568   2.467  0.0075 -1.2781 -0.1588
 6572SOL     OW21165   0.939   5.217   0.560 -0.5772  0.7710  0.0418
 6572SOL    HW121166   0.850   5.185   0.574 -0.3296 -1.2057 -2.3407
 6572SOL    HW221167   0.942   5.238   0.467  1.6267  0.1990 -0.0583
 6573SOL     OW21168   6.599   4.644   7.067  0.0749 -0.2411 -0.6512
 6573SOL    HW121169   6.539   4.670   7.137  0.2848 -0.2777 -0.4569
 6573SOL    HW221170   6.686   4.651   7.106  0.3404  1.4511 -1.4361
 6574SOL     OW21171   1.833   5.870   1.581 -0.1057 -0.1922 -0.2051
 6574SOL    HW121172   1.852   5.911   1.497  0.8882 -0.8354 -0.3068
 6574SOL    HW221173   1.750   5.824   1.568  0.3081 -0.7307 -1.0041
 6575SOL     OW21174   6.065   4.940   1.066 -0.0913  0.0667 -0.5489
 6575SOL    HW121175   6.019   4.862   1.033 -1.2198  1.0078 -1.3112
 6575SOL    HW221176   6.078   4.923   1.159  0.2051 -1.2743 -0.8181
 6576SOL     OW21177   6.981   0.242   3.730  0.2996 -0.6375 -0.4209
 6576SOL    HW121178   6.892   0.273   3.746  1.4906  1.7105  2.6372
 6576SOL    HW221179   6.972   0.180   3.658 -4.0136 -1.7560  0.7770
 6577SOL     OW21180   1.032   5.996   6.103  0.1673  0.3630 -0.3346
 6577SOL    HW121181   1.046   5.915   6.153 -0.9177  1.2137  1.4666
 6577SOL    HW221182   1.038   5.969   6.011  2.8523 -1.1795  0.1800
 6578SOL     OW21183   0.529   4.571   3.030  0.3546  0.0294 -0.5473
 6578SOL    HW121184   0.481   4.524   3.098  0.2599  2.5487  1.3132
 6578SOL    HW221185   0.606   4.606   3.075  2.8881 -2.0532 -2.9296
 6579SOL     OW21186   5.148   5.695   5.118 -0.7597  0.0482  0.4201
 6579SOL    HW121187   5.054   5.700   5.098 -0.6338  0.0985 -0.1532
 6579SOL    HW221188   5.188   5.766   5.069 -0.2358 -0.8265 -0.4492
 6580SOL     OW21189   5.931   6.085   0.607 -0.2186  0.6726  0.8056
 6580SOL    HW121190   5.918   6.169   0.651 -1.2275 -0.5426  2.9424
 6580SOL    HW221191   6.006   6.046   0.651 -0.1565  0.1726  0.2704
 6581SOL     OW21192   1.570   1.882   2.385 -0.4217  0.1476 -0.4975
 6581SOL    HW121193   1.592   1.914   2.473 -1.0346  1.4127 -0.7859
 6581SOL    HW221194   1.638   1.818   2.365 -0.2995 -0.1921  0.9168
 6582SOL     OW21195   1.708   2.554   1.832 -0.6119  0.1535 -0.2167
 6582SOL    HW121196   1.680   2.490   1.767 -0.4801  0.5263 -0.6500
 6582SOL    HW221197   1.777   2.511   1.882 -0.8179 -0.1882 -0.2285
 6583SOL     OW21198   3.585   6.628   5.034  0.4172  0.4405  0.2660
 6583SOL    HW121199   3.543   6.616   5.119  0.0389  0.3285  0.0655
 6583SOL    HW221200   3.603   6.722   5.029  0.3076  0.4697  0.4108
 6584SOL     OW21201   6.721   2.766   7.069 -0.1225 -0.8728 -0.2378
 6584SOL    HW121202   6.732   2.755   7.163 -1.6254 -0.2787  0.0398
 6584SOL    HW221203   6.654   2.703   7.045 -1.7876  0.8583 -0.3661
 6585SOL     OW21204   1.026   0.315   1.091 -0.0983  0.0191 -0.4090
 6585SOL    HW121205   1.075   0.236   1.070 -1.2805 -1.0773  0.7455
 6585SOL    HW221206   0.935   0.286   1.093 -0.5619  1.4404 -0.0401
 6586SOL     OW21207   4.924   3.767   6.677  0.0258 -0.1674 -0.1595
 6586SOL    HW121208   4.991   3.835   6.669  0.1364 -0.0715  1.3018
 6586SOL    HW221209   4.841   3.815   6.680  0.1863  0.1207  2.5096
 6587SOL     OW21210   6.368   0.331   0.698 -0.8181  0.1008 -0.3060
 6587SOL    HW121211   6.456   0.365   0.681 -0.3068 -0.0029  1.8795
 6587SOL    HW221212   6.368   0.244   0.659 -0.0990  0.2576 -0.6728
 6588SOL     OW21213   0.178   7.135   6.647  0.1123  0.0260  0.1348
 6588SOL    HW121214   0.128   7.207   6.610 -2.2360 -1.0528  1.0066
 6588SOL    HW221215   0.165   7.062   6.587  0.0394 -0.4588  0.7219
 6589SOL     OW21216   2.793   0.554   6.529 -0.0466 -0.1296 -0.3223
 6589SOL    HW121217   2.820   0.606   6.604  1.2107 -1.9522  0.5502
 6589SOL    HW221218   2.713   0.597   6.497  0.4449  1.7634  0.8844
 6590SOL     OW21219   3.562   3.833   1.992  0.3340 -0.1326 -0.3773
 6590SOL    HW121220   3.516   3.898   1.938 -1.4585 -0.2091  0.9459
 6590SOL    HW221221   3.497   3.764   2.005  1.0240 -0.5412  1.0886
 6591SOL     OW21222   3.557   6.342   0.238  0.2293 -0.1755  0.3210
 6591SOL    HW121223   3.565   6.437   0.236 -1.9399  0.0428 -1.6732
 6591SOL    HW221224   3.466   6.326   0.263  0.8995 -1.8059  1.9240
 6592SOL     OW21225   1.933   4.172   5.887 -0.1862 -0.8730 -0.7706
 6592SOL    HW121226   1.938   4.127   5.803 -2.0622 -0.4361 -1.1548
 6592SOL    HW221227   1.940   4.265   5.866  2.1437 -0.8349 -0.1230
 6593SOL     OW21228   3.738   4.655   0.120  0.1173 -0.0449  0.5639
 6593SOL    HW121229   3.662   4.657   0.178 -0.1807  0.0688  0.1753
 6593SOL    HW221230   3.768   4.746   0.118 -0.0319  0.0010  0.3375
 6594SOL     OW21231   1.129   6.740   7.023 -0.1040  0.2649  0.3530
 6594SOL    HW121232   1.191   6.775   6.959  0.9057 -1.1784  0.4881
 6594SOL    HW221233   1.162   6.652   7.043 -0.7235  0.4411  2.4063
 6595SOL     OW21234   3.215   0.300   0.358 -0.1264  0.3046  0.1274
 6595SOL    HW121235   3.165   0.221   0.380 -0.2213 -0.1858 -1.6674
 6595SOL    HW221236   3.305   0.280   0.386 -0.1041 -0.5581 -0.5167
 6596SOL     OW21237   0.707   3.968   4.856 -0.4391 -0.4232 -0.3084
 6596SOL    HW121238   0.732   3.902   4.791  0.7725 -0.1781 -0.1114
 6596SOL    HW221239   0.786   3.984   4.906 -1.1468 -0.0007  0.7156
 6597SOL     OW21240   2.114   0.330   6.278 -0.3569  0.6333 -0.2459
 6597SOL    HW121241   2.195   0.318   6.329  0.1366  0.0528 -1.1452
 6597SOL    HW221242   2.049   0.358   6.343 -0.2158 -1.8349  1.0875
 6598SOL     OW21243   4.925   5.962   0.570 -0.5740 -0.6686  0.2778
 6598SOL    HW121244   4.990   5.986   0.504  0.6957  0.5185  1.8866
 6598SOL    HW221245   4.859   6.032   0.564 -0.3233 -0.4172  0.4498
 6599SOL     OW21246   6.499   1.429   6.774 -0.2002 -0.5276  0.0304
 6599SOL    HW121247   6.487   1.524   6.778 -0.7672 -0.5871 -0.3223
 6599SOL    HW221248   6.579   1.414   6.825 -1.0998 -0.0547  1.6417
 6600SOL     OW21249   5.493   1.192   3.876 -0.0670  0.2697 -0.4116
 6600SOL    HW121250   5.397   1.186   3.876 -0.2292  2.0916  0.0878
 6600SOL    HW221251   5.522   1.114   3.924 -1.2471 -0.6556 -1.1445
 6601SOL     OW21252   3.175   5.232   4.937  0.0390  0.4156 -0.0294
 6601SOL    HW121253   3.212   5.258   4.853 -0.5725 -0.1623 -0.4819
 6601SOL    HW221254   3.233   5.272   5.002 -0.5007  2.3891 -0.6911
 6602SOL     OW21255   3.676   6.347   6.406  0.6272  0.1384  0.2075
 6602SOL    HW121256   3.689   6.252   6.400  0.9958  0.0297  2.1295
 6602SOL    HW221257   3.727   6.373   6.483 -0.2442  1.7559  0.2653
 6603SOL     OW21258   3.879   2.066   6.741 -0.1917  0.0451  0.2762
 6603SOL    HW121259   3.932   1.986   6.750  0.5192  0.6426  1.7272
 6603SOL    HW221260   3.795   2.035   6.707  0.2858 -1.2256  0.1728
 6604SOL     OW21261   2.962   6.057   4.762 -0.4291  0.1463  0.3578
 6604SOL    HW121262   2.928   6.119   4.697 -2.7630 -1.4804 -0.0680
 6604SOL    HW221263   2.891   6.045   4.824 -1.0219 -3.7644 -0.8186
 6605SOL     OW21264   1.866   4.802   1.670  0.3444  0.3126  0.2232
 6605SOL    HW121265   1.790   4.745   1.676  0.2936  0.3211 -0.2843
 6605SOL    HW221266   1.878   4.815   1.576  1.3457 -0.1928  0.2696
 6606SOL     OW21267   5.497   3.463   4.817  0.5749 -0.2676 -0.1219
 6606SOL    HW121268   5.428   3.517   4.779 -1.1959 -2.0076  0.4689
 6606SOL    HW221269   5.554   3.525   4.863  0.7114  1.4563 -2.4672
 6607SOL     OW21270   0.037   5.000   6.553  0.1784 -0.3858  0.1507
 6607SOL    HW121271  -0.036   4.985   6.612  0.3777 -1.6230  0.1110
 6607SOL    HW221272   0.001   4.983   6.466  0.3262 -0.2654  0.0656
 6608SOL     OW21273   1.434   5.244   4.622  0.1520  0.8864 -0.0495
 6608SOL    HW121274   1.441   5.296   4.703 -0.6962  1.6483 -0.4382
 6608SOL    HW221275   1.356   5.280   4.579 -2.0113 -2.3358  0.8231
 6609SOL     OW21276   3.003   5.394   2.994 -0.2175  0.2724 -0.2112
 6609SOL    HW121277   3.022   5.309   2.954  0.5533  0.9496 -1.3327
 6609SOL    HW221278   2.923   5.424   2.951  0.2662  0.7231 -0.8007
 6610SOL     OW21279   0.907   2.427   0.512 -0.3295  0.0207 -0.5784
 6610SOL    HW121280   0.915   2.401   0.604  0.7026 -0.7299 -0.8557
 6610SOL    HW221281   0.816   2.455   0.503 -0.8429 -1.2480  0.3365
 6611SOL     OW21282   6.778   6.219   0.412 -0.8270  1.4581  0.0739
 6611SOL    HW121283   6.743   6.130   0.410  0.5950  0.8872 -0.0342
 6611SOL    HW221284   6.701   6.275   0.397 -1.4138  0.1616 -2.3638
 6612SOL     OW21285   5.240   4.953   0.238  0.0145  0.4191  0.0085
 6612SOL    HW121286   5.192   5.011   0.297 -0.3512 -1.4383  1.6356
 6612SOL    HW221287   5.330   4.984   0.242 -0.0802  0.5524  1.2609
 6613SOL     OW21288   0.796   0.532   6.678  0.4884  0.3984  0.3252
 6613SOL    HW121289   0.858   0.548   6.606  1.0421 -0.1072  0.6832
 6613SOL    HW221290   0.816   0.600   6.742 -0.6033  1.4115 -0.3598
 6614SOL     OW21291   3.719   3.923   5.402 -0.0609 -0.0398 -0.3886
 6614SOL    HW121292   3.648   3.898   5.343  0.0165 -3.6571  0.8127
 6614SOL    HW221293   3.673   3.952   5.482 -0.3049 -2.1947  0.3200
 6615SOL     OW21294   3.042   1.830   1.148 -0.1993 -0.1748  0.1369
 6615SOL    HW121295   3.095   1.752   1.132  0.6870  0.3823  0.2715
 6615SOL    HW221296   2.952   1.803   1.130  0.1181 -1.1760  0.0243
 6616SOL     OW21297   5.499   5.338   2.542 -0.0495  0.0734 -0.5834
 6616SOL    HW121298   5.428   5.311   2.600  0.3337 -1.3555 -0.7387
 6616SOL    HW221299   5.550   5.401   2.593 -0.1997 -0.5217  0.3202
 6617SOL     OW21300   0.905   5.773   2.883 -0.3400 -0.4774  0.2443
 6617SOL    HW121301   0.855   5.745   2.806  0.1772  1.3193 -0.8080
 6617SOL    HW221302   0.848   5.836   2.927 -0.1041 -0.4954  0.5785
 6618SOL     OW21303   3.468   6.607   5.295  0.9804  0.1170  0.0470
 6618SOL    HW121304   3.558   6.592   5.324  0.4251  2.4772  3.7171
 6618SOL    HW221305   3.415   6.590   5.372 -1.6223  0.0887 -1.6300
 6619SOL     OW21306   5.332   2.554   2.153 -0.1125 -0.6095 -0.1420
 6619SOL    HW121307   5.263   2.541   2.088 -0.1503  1.7140 -0.6350
 6619SOL    HW221308   5.395   2.612   2.111 -0.0975  0.9092  1.8195
 6620SOL     OW21309   4.086   5.501   4.695 -1.0880  0.0822  0.1147
 6620SOL    HW121310   4.104   5.565   4.764  0.7515  0.3292 -0.5211
 6620SOL    HW221311   4.054   5.552   4.621 -0.9980  0.1023  0.0887
 6621SOL     OW21312   0.378   4.890   0.728  0.4939  0.1071  0.6557
 6621SOL    HW121313   0.444   4.931   0.672  1.7939  0.8997  2.6425
 6621SOL    HW221314   0.365   4.952   0.799 -2.2854 -0.1409  0.4652
 6622SOL     OW21315   3.284   0.211   5.187  0.3245  0.0535 -0.1678
 6622SOL    HW121316   3.212   0.149   5.179 -0.9523  1.5904 -1.0876
 6622SOL    HW221317   3.354   0.176   5.132  0.4134 -1.5716  0.9247
 6623SOL     OW21318   6.347   0.597   0.253  0.7225  0.1877  0.1835
 6623SOL    HW121319   6.355   0.687   0.222 -0.0874 -0.3476 -1.7750
 6623SOL    HW221320   6.284   0.601   0.325 -0.0123  1.0817 -0.4840
 6624SOL     OW21321   4.277   6.711   3.712  0.3144  0.6144 -0.3520
 6624SOL    HW121322   4.362   6.729   3.672  0.8530  0.4284  0.6829
 6624SOL    HW221323   4.297   6.668   3.795 -0.8271 -0.5797 -0.6504
 6625SOL     OW21324   4.164   6.096   2.084  0.5195  0.3861  0.2056
 6625SOL    HW121325   4.239   6.110   2.025 -1.6805  0.8341 -2.7409
 6625SOL    HW221326   4.148   6.002   2.080 -0.4700  0.5748 -1.1760
 6626SOL     OW21327   6.696   2.117   4.533 -0.3175 -0.2506 -0.0515
 6626SOL    HW121328   6.646   2.184   4.486  1.8183  2.3519  1.1056
 6626SOL    HW221329   6.696   2.148   4.624  0.9256 -1.7423  0.4893
 6627SOL     OW21330   2.027   6.880   3.496  0.4290 -0.4541 -0.0796
 6627SOL    HW121331   2.070   6.955   3.539  0.6533 -0.8296  0.3547
 6627SOL    HW221332   2.064   6.803   3.538 -0.7772 -0.7923  0.4056
 6628SOL     OW21333   3.420   0.799   5.915  0.1594  0.2800 -0.4000
 6628SOL    HW121334   3.447   0.786   5.824  0.8266 -0.9207 -0.0514
 6628SOL    HW221335   3.445   0.718   5.959 -0.3761  0.7516  0.8096
 6629SOL     OW21336   6.183   2.818   6.286 -0.3132  0.8418 -0.0979
 6629SOL    HW121337   6.275   2.843   6.275 -0.1032 -0.2195 -0.9391
 6629SOL    HW221338   6.134   2.900   6.272  0.4209  1.1147 -1.2259
 6630SOL     OW21339   1.276   3.770   1.374  0.3311 -0.1187  0.2419
 6630SOL    HW121340   1.196   3.796   1.420 -0.2175  1.2277 -1.3778
 6630SOL    HW221341   1.276   3.823   1.295  2.8551 -0.1044  0.1907
 6631SOL     OW21342   1.569   4.711   4.502  0.6195  0.4571 -0.0472
 6631SOL    HW121343   1.557   4.629   4.453  1.2039  0.2869  0.0825
 6631SOL    HW221344   1.632   4.761   4.449 -0.0809  1.0252 -0.3608
 6632SOL     OW21345   2.874   3.425   1.370  0.3124 -0.2089 -0.2900
 6632SOL    HW121346   2.853   3.350   1.314 -1.9689 -0.7919  1.2431
 6632SOL    HW221347   2.928   3.482   1.314  0.6008 -2.1184 -2.0788
 6633SOL     OW21348   3.476   3.937   1.719 -0.1862  0.3122 -0.1683
 6633SOL    HW121349   3.396   3.892   1.693 -1.5735  0.7690  2.8766
 6633SOL    HW221350   3.495   3.996   1.646 -1.8252 -0.8000 -1.5599
 6634SOL     OW21351   1.784   1.574   2.077  0.0947  0.6786  0.4753
 6634SOL    HW121352   1.817   1.636   2.142  1.0967  0.1002  0.5396
 6634SOL    HW221353   1.792   1.488   2.119  0.1563  0.3596 -0.1755
 6635SOL     OW21354   2.704   1.085   4.817 -0.4243 -0.0544 -0.1088
 6635SOL    HW121355   2.642   1.127   4.876 -0.8488 -1.3207  0.3637
 6635SOL    HW221356   2.707   0.994   4.845  0.1810 -0.4453 -1.3665
 6636SOL     OW21357   6.073   0.957   0.657  0.1418  0.4452  0.3132
 6636SOL    HW121358   6.126   0.978   0.735  1.6330  0.4191 -0.6505
 6636SOL    HW221359   6.023   1.037   0.640  1.1568  1.1004  0.2747
 6637SOL     OW21360   6.803   5.251   4.185  0.5450  0.1206  0.1127
 6637SOL    HW121361   6.815   5.200   4.105 -0.9748  1.4425 -1.0391
 6637SOL    HW221362   6.838   5.196   4.255 -0.1764 -2.0642 -1.1689
 6638SOL     OW21363   6.677   5.972   3.810  0.7131  0.2362  0.2656
 6638SOL    HW121364   6.644   5.955   3.898 -1.7174  1.0933 -0.3883
 6638SOL    HW221365   6.651   5.895   3.759 -1.3820  1.3198 -0.4704
 6639SOL     OW21366   2.039   1.915   4.917  0.0896 -0.4516  0.2842
 6639SOL    HW121367   2.038   1.928   5.012 -0.0171 -1.8203  0.4879
 6639SOL    HW221368   1.990   1.834   4.904  0.9595 -0.8031 -0.8628
 6640SOL     OW21369   5.579   4.395   4.734  0.8409  0.5872 -0.5022
 6640SOL    HW121370   5.504   4.383   4.675  1.6988  1.7015 -1.8771
 6640SOL    HW221371   5.620   4.476   4.704  3.2114 -0.5164 -0.4677
 6641SOL     OW21372   0.510   1.625   2.868  0.7643 -0.1177  0.6720
 6641SOL    HW121373   0.495   1.714   2.836  2.9012 -0.8330 -2.9575
 6641SOL    HW221374   0.423   1.588   2.878 -0.1992  1.0445 -2.3334
 6642SOL     OW21375   0.507   4.754   4.709  0.3526  0.2455 -0.7837
 6642SOL    HW121376   0.508   4.716   4.622  3.3298  1.3631 -1.3706
 6642SOL    HW221377   0.541   4.684   4.766 -1.5263 -0.4606 -0.4759
 6643SOL     OW21378   4.547   4.277   2.145 -0.0552  0.0507 -0.8264
 6643SOL    HW121379   4.594   4.348   2.188  0.0901 -0.8127  0.5051
 6643SOL    HW221380   4.582   4.197   2.185 -2.5131 -0.6441  0.1324
 6644SOL     OW21381   6.379   2.743   6.842 -0.2692 -0.6692  0.0858
 6644SOL    HW121382   6.415   2.685   6.908 -1.8130 -1.2273  0.4744
 6644SOL    HW221383   6.413   2.709   6.759  0.3578 -0.9549  0.4518
 6645SOL     OW21384   3.967   1.592   6.644  0.2289 -0.0806  0.2326
 6645SOL    HW121385   3.999   1.535   6.714 -1.7410 -0.3010  1.0163
 6645SOL    HW221386   3.876   1.611   6.668 -1.3262 -1.9802 -3.3769
 6646SOL     OW21387   0.709   3.671   5.707  0.1474  0.0581 -0.0544
 6646SOL    HW121388   0.687   3.669   5.800  1.3802 -1.1419  0.2556
 6646SOL    HW221389   0.626   3.655   5.662 -0.6028  1.4374  0.7831
 6647SOL     OW21390   4.941   5.830   6.150 -0.0282  0.0846  0.3029
 6647SOL    HW121391   4.997   5.857   6.223  0.0476 -0.3637  0.4154
 6647SOL    HW221392   4.947   5.902   6.087  1.1627 -0.2176  0.0427
 6648SOL     OW21393   0.853   0.943   6.677  0.0341  0.1452 -0.4503
 6648SOL    HW121394   0.855   1.015   6.613 -2.0938  0.0515 -0.6642
 6648SOL    HW221395   0.761   0.922   6.688  0.4559 -0.9869  1.4176
 6649SOL     OW21396   0.488   1.232   4.189  0.1733  0.2112 -0.7062
 6649SOL    HW121397   0.413   1.289   4.209  0.7657  1.3585 -1.5870
 6649SOL    HW221398   0.480   1.159   4.250 -1.2978  0.6349 -0.3446
 6650SOL     OW21399   2.997   2.471   2.066  0.6478  0.5034  0.3859
 6650SOL    HW121400   2.919   2.519   2.038  0.5140 -0.4433 -0.9886
 6650SOL    HW221401   3.070   2.518   2.026  0.6403  0.3969  0.2478
 6651SOL     OW21402   1.850   2.800   5.354 -0.2350 -0.0055 -0.1575
 6651SOL    HW121403   1.813   2.839   5.433 -0.6896 -0.2791 -0.2371
 6651SOL    HW221404   1.797   2.834   5.282  1.3067  1.7350 -0.5704
 6652SOL     OW21405   3.554   5.745   5.934  0.2681 -0.3152 -0.1275
 6652SOL    HW121406   3.491   5.673   5.928 -2.1481  1.6234  0.3798
 6652SOL    HW221407   3.530   5.804   5.863  1.2697  0.6726  0.3232
 6653SOL     OW21408   4.782   0.165   2.269  0.2037  0.3134 -1.0754
 6653SOL    HW121409   4.810   0.256   2.258  0.1320  0.3178 -1.2233
 6653SOL    HW221410   4.689   0.170   2.290  0.1130  0.2592 -1.4473
 6654SOL     OW21411   3.173   5.671   0.761  0.0471  0.0090 -0.0647
 6654SOL    HW121412   3.106   5.712   0.817 -1.0333 -1.6749 -0.0755
 6654SOL    HW221413   3.254   5.681   0.811 -0.6657 -0.2359  1.1957
 6655SOL     OW21414   4.246   4.706   5.785  0.0093  0.5325  0.2161
 6655SOL    HW121415   4.278   4.728   5.872  3.2808 -1.0582 -0.4344
 6655SOL    HW221416   4.273   4.615   5.772 -1.8772  0.1948 -1.8574
 6656SOL     OW21417   1.983   1.655   1.019  0.2003  0.0089  0.2957
 6656SOL    HW121418   2.014   1.588   1.080  1.0207 -3.2361 -3.3301
 6656SOL    HW221419   1.887   1.649   1.023  0.2588 -1.7505 -0.2424
 6657SOL     OW21420   2.110   3.916   2.438 -0.1160  0.4068 -0.3023
 6657SOL    HW121421   2.166   3.958   2.372  0.9009 -0.3151  0.0862
 6657SOL    HW221422   2.170   3.888   2.507 -0.9757 -0.2808  0.1910
 6658SOL     OW21423   1.950   1.431   1.846  0.4453  0.0434 -0.5768
 6658SOL    HW121424   1.935   1.445   1.753  2.2387  0.6380 -0.8163
 6658SOL    HW221425   1.907   1.505   1.889 -0.0839 -0.0433 -0.9455
 6659SOL     OW21426   3.966   6.479   5.014  0.3985 -0.7007 -0.0301
 6659SOL    HW121427   4.021   6.423   4.958  2.8354  2.7453 -1.4109
 6659SOL    HW221428   3.903   6.518   4.953  0.5711  0.1765  0.3426
 6660SOL     OW21429   1.154   0.555   3.444 -0.6388 -0.4499 -0.3737
 6660SOL    HW121430   1.153   0.600   3.529 -1.2374  0.6376 -0.9399
 6660SOL    HW221431   1.246   0.555   3.418 -0.2678 -1.8336  0.7859
 6661SOL     OW21432   5.040   6.191   2.859 -0.5005 -0.0129 -0.2043
 6661SOL    HW121433   5.079   6.247   2.926 -1.9878  0.7926  0.0234
 6661SOL    HW221434   5.046   6.103   2.896 -0.3941  0.3012  0.5526
 6662SOL     OW21435   0.934   5.738   5.929  0.3756 -0.3587 -0.1685
 6662SOL    HW121436   0.965   5.828   5.919  1.7637 -0.6754  0.8921
 6662SOL    HW221437   0.840   5.743   5.914  0.3863  1.3143  0.0823
 6663SOL     OW21438   2.731   0.411   4.374  0.3851  0.0637  0.7245
 6663SOL    HW121439   2.767   0.416   4.286  0.6914  1.7904  0.9038
 6663SOL    HW221440   2.780   0.342   4.417  2.9544  1.7477  0.6965
 6664SOL     OW21441   5.494   0.529   1.245 -0.0223  0.1546 -0.7348
 6664SOL    HW121442   5.455   0.456   1.198  0.4326 -0.4487 -0.2036
 6664SOL    HW221443   5.504   0.497   1.335 -2.5436  1.8869  0.2695
 6665SOL     OW21444   1.529   2.489   3.352  0.5374 -0.2877  0.2519
 6665SOL    HW121445   1.548   2.396   3.368  2.5957 -0.1927 -1.2530
 6665SOL    HW221446   1.436   2.498   3.372  0.0915 -2.8541 -0.2692
 6666SOL     OW21447   3.811   3.313   0.780 -0.0676  0.8937 -0.4397
 6666SOL    HW121448   3.807   3.266   0.864 -0.4482 -0.0940 -0.9879
 6666SOL    HW221449   3.829   3.404   0.804  0.0659  0.5871  0.6987
 6667SOL     OW21450   0.857   1.694   2.232 -0.1546  0.1636  0.0333
 6667SOL    HW121451   0.788   1.641   2.272 -0.5385  0.1648 -0.6082
 6667SOL    HW221452   0.864   1.771   2.288 -0.7508  0.2121  0.0466
 6668SOL     OW21453   6.279   2.965   3.802  0.3193  0.3249 -0.1901
 6668SOL    HW121454   6.210   3.032   3.799  0.7443  0.7537 -1.5379
 6668SOL    HW221455   6.234   2.883   3.782 -0.0270  0.3838  0.3480
 6669SOL     OW21456   5.473   1.221   7.129 -0.4088 -0.7409 -0.0341
 6669SOL    HW121457   5.415   1.292   7.101 -2.5653 -2.0856  0.7609
 6669SOL    HW221458   5.482   1.165   7.052 -1.4035 -1.2755  0.2148
 6670SOL     OW21459   2.664   1.968   6.731  0.4212 -0.0247 -0.2074
 6670SOL    HW121460   2.594   2.024   6.765  0.2342 -0.7690  0.6927
 6670SOL    HW221461   2.636   1.946   6.642  1.1264  2.3170 -1.0562
 6671SOL     OW21462   1.246   2.594   3.946  0.2102  0.2513 -0.3678
 6671SOL    HW121463   1.294   2.649   4.009 -0.8759  0.5926  0.1877
 6671SOL    HW221464   1.276   2.505   3.964  2.1875  0.6310 -1.4452
 6672SOL     OW21465   4.322   1.235   0.402 -0.2159 -0.1353 -0.0703
 6672SOL    HW121466   4.407   1.238   0.444  0.3002 -1.1625 -0.9991
 6672SOL    HW221467   4.273   1.307   0.442  1.5428  1.3757 -0.5209
 6673SOL     OW21468   5.186   4.802   0.475  0.5570 -0.3537 -0.0052
 6673SOL    HW121469   5.235   4.796   0.393  0.1272 -1.4248 -0.2001
 6673SOL    HW221470   5.100   4.766   0.455  0.1910  0.0898  0.7243
 6674SOL     OW21471   0.298   5.982   1.389 -0.4070  0.0269 -0.5697
 6674SOL    HW121472   0.318   6.073   1.410 -1.8008  0.4335 -0.8734
 6674SOL    HW221473   0.227   5.959   1.448 -0.9937 -0.4100 -1.4244
 6675SOL     OW21474   4.753   7.064   4.485  0.5965  0.3827 -0.4865
 6675SOL    HW121475   4.793   7.071   4.572 -0.7354  1.1379  0.1010
 6675SOL    HW221476   4.767   6.973   4.460 -0.3556 -0.3080  1.2452
 6676SOL     OW21477   5.000   6.518   5.080  0.0460 -0.6414 -0.0156
 6676SOL    HW121478   5.024   6.439   5.127  0.7182  0.4881  1.6414
 6676SOL    HW221479   4.905   6.521   5.083  0.0831 -0.2142  2.0281
 6677SOL     OW21480   5.446   3.976   1.774  0.4572  0.0197  0.6587
 6677SOL    HW121481   5.352   3.989   1.785  0.4140 -0.0028  0.3126
 6677SOL    HW221482   5.455   3.938   1.687  0.9014  1.3038  0.1287
 6678SOL     OW21483   3.996   0.391   3.634 -0.1907  0.6116 -0.3791
 6678SOL    HW121484   4.086   0.379   3.603 -0.1255  0.3441 -0.0977
 6678SOL    HW221485   3.949   0.313   3.604 -0.5012  1.0791 -1.1226
 6679SOL     OW21486   2.555   4.814   0.087 -0.0879  0.3851 -0.1994
 6679SOL    HW121487   2.493   4.838   0.017 -0.6060 -1.2433 -0.3698
 6679SOL    HW221488   2.618   4.757   0.043  0.6899  0.8773  0.2821
 6680SOL     OW21489   6.609   0.494   1.367 -0.0253 -0.3101  0.0711
 6680SOL    HW121490   6.600   0.406   1.331  1.3747 -0.3520 -0.2383
 6680SOL    HW221491   6.522   0.515   1.401 -1.0450 -0.8116 -2.0654
 6681SOL     OW21492   0.328   5.017   4.497 -0.0614 -0.1663 -0.4121
 6681SOL    HW121493   0.399   5.076   4.470  0.3265 -0.3172  0.2583
 6681SOL    HW221494   0.317   4.957   4.423  0.7924 -0.3940 -0.3704
 6682SOL     OW21495   5.612   4.160   2.164 -0.2441  0.3407  0.0493
 6682SOL    HW121496   5.641   4.219   2.094  1.9968 -0.4599  0.2156
 6682SOL    HW221497   5.654   4.195   2.243  0.5431 -1.0326  0.2691
 6683SOL     OW21498   6.851   2.935   6.376  0.3974 -0.1989 -0.6397
 6683SOL    HW121499   6.907   2.861   6.354 -0.5984 -0.5866 -2.0089
 6683SOL    HW221500   6.884   2.966   6.460  0.5359 -2.5070  0.2408
 6684SOL     OW21501   0.328   4.093   6.428  0.3744 -0.1432  0.4814
 6684SOL    HW121502   0.246   4.138   6.408  0.7222  1.6804  2.7110
 6684SOL    HW221503   0.305   4.000   6.429 -1.3945  0.2570  0.0213
 6685SOL     OW21504   3.022   5.627   3.137  0.1690  0.4578  0.1226
 6685SOL    HW121505   3.017   5.544   3.090 -0.8729 -0.5192  1.8374
 6685SOL    HW221506   2.941   5.673   3.115 -0.9652 -0.5837  1.8887
 6686SOL     OW21507   0.504   2.964   4.890  0.5700 -0.0176  0.6745
 6686SOL    HW121508   0.593   2.998   4.881 -0.1125  1.6164 -0.3220
 6686SOL    HW221509   0.504   2.884   4.836  1.1133  0.6405 -0.3463
 6687SOL     OW21510   5.727   5.457   1.249 -0.3314 -0.2715 -0.0683
 6687SOL    HW121511   5.688   5.391   1.306 -2.2670  2.0369  1.4919
 6687SOL    HW221512   5.779   5.511   1.308 -3.6638  3.1592  0.1246
 6688SOL     OW21513   1.718   3.780   0.675  0.2505 -0.2647 -0.4926
 6688SOL    HW121514   1.755   3.753   0.591  0.7939 -1.0873  0.0048
 6688SOL    HW221515   1.767   3.731   0.740  0.3989  0.9824  0.3660
 6689SOL     OW21516   1.291   5.573   6.955  0.0883 -0.0401 -0.4984
 6689SOL    HW121517   1.206   5.533   6.970  0.8965 -0.9200  2.3267
 6689SOL    HW221518   1.330   5.522   6.884 -1.3955 -0.1286 -1.2804
 6690SOL     OW21519   6.282   3.481   2.794  0.0509 -0.2708 -0.3700
 6690SOL    HW121520   6.277   3.415   2.863 -1.6915 -0.3564 -0.5240
 6690SOL    HW221521   6.206   3.537   2.809  0.9565  1.1338 -0.8318
 6691SOL     OW21522   0.988   5.993   4.291 -0.0173  0.2543 -0.0214
 6691SOL    HW121523   0.919   5.992   4.224 -0.8432  0.1157  0.8125
 6691SOL    HW221524   1.069   6.003   4.241 -0.5863 -0.1701 -1.0689
 6692SOL     OW21525   2.254   0.495   4.786 -0.5810 -0.1747 -0.3757
 6692SOL    HW121526   2.329   0.477   4.843 -0.6860 -0.1154 -0.2198
 6692SOL    HW221527   2.259   0.589   4.769  0.6070 -0.4974 -2.0768
 6693SOL     OW21528   5.667   6.366   1.308 -0.6920 -0.4731  0.5001
 6693SOL    HW121529   5.690   6.457   1.291  0.8188 -0.9774 -0.4025
 6693SOL    HW221530   5.658   6.327   1.221 -1.5606 -1.1470  0.8688
 6694SOL     OW21531   5.085   3.587   3.711  0.0360 -0.9284 -0.2460
 6694SOL    HW121532   5.122   3.654   3.769 -0.4660 -1.3488  0.5828
 6694SOL    HW221533   5.038   3.528   3.770 -0.4901 -1.3718 -1.0914
 6695SOL     OW21534   1.626   3.804   2.236 -0.3790  0.4105 -0.4244
 6695SOL    HW121535   1.675   3.734   2.281  1.0082  1.4954 -0.1672
 6695SOL    HW221536   1.555   3.758   2.192  0.3723 -1.1526 -0.1070
 6696SOL     OW21537   3.261   4.081   1.380  0.0623 -0.9156  0.3270
 6696SOL    HW121538   3.272   4.176   1.370  2.4011 -1.2748 -1.4356
 6696SOL    HW221539   3.300   4.061   1.465 -0.4446 -0.3257  0.7117
 6697SOL     OW21540   1.939   5.420   3.045  0.0464  0.5293  0.5364
 6697SOL    HW121541   2.011   5.377   3.000  1.4589  0.6505  2.5588
 6697SOL    HW221542   1.923   5.500   2.994  0.1984 -0.3243 -0.8739
 6698SOL     OW21543   3.774   5.701   7.061 -0.0857 -0.3517  0.4510
 6698SOL    HW121544   3.836   5.629   7.065  0.5290 -0.0413 -1.9386
 6698SOL    HW221545   3.828   5.780   7.053 -0.7459  0.0437 -0.4045
 6699SOL     OW21546   6.196   7.057   2.229  0.1156 -0.0998 -0.3266
 6699SOL    HW121547   6.147   7.002   2.168  1.2069 -0.7822 -0.6158
 6699SOL    HW221548   6.243   7.119   2.173 -1.1769  1.2472 -0.0011
 6700SOL     OW21549   0.720   3.160   5.408 -0.0128  0.0840 -0.5375
 6700SOL    HW121550   0.634   3.124   5.387  0.2756 -1.3131  0.4650
 6700SOL    HW221551   0.737   3.225   5.341 -2.5321  1.5690  0.1375
 6701SOL     OW21552   1.855   4.501   2.669 -0.1124  0.0634  0.7441
 6701SOL    HW121553   1.849   4.530   2.761 -1.5448 -2.3854  1.5263
 6701SOL    HW221554   1.911   4.424   2.672 -1.3614 -0.9082 -0.1868
 6702SOL     OW21555   5.768   1.515   2.479  0.0041  0.1020 -0.4569
 6702SOL    HW121556   5.800   1.468   2.556 -1.6062  1.4443  1.0949
 6702SOL    HW221557   5.846   1.556   2.442  0.5701  0.9797  1.5792
 6703SOL     OW21558   3.465   0.239   4.209 -0.0303  0.2026 -0.1910
 6703SOL    HW121559   3.486   0.315   4.154  0.3335  0.0829 -0.2232
 6703SOL    HW221560   3.521   0.249   4.286  0.5393 -0.3922 -0.5113
 6704SOL     OW21561   6.729   4.670   5.318 -0.6830  0.1304  0.0969
 6704SOL    HW121562   6.654   4.657   5.260  0.2485 -1.7835 -0.7817
 6704SOL    HW221563   6.800   4.699   5.260 -0.3554  0.5406  0.6840
 6705SOL     OW21564   7.025   1.105   6.967 -0.3987 -0.2920 -0.0182
 6705SOL    HW121565   7.111   1.072   6.942 -0.8670 -0.9039 -0.8583
 6705SOL    HW221566   6.998   1.161   6.895 -1.3041 -1.2257 -0.4304
 6706SOL     OW21567   3.736   0.057   4.997 -0.4093 -0.4411  0.7383
 6706SOL    HW121568   3.793   0.130   5.022 -0.9313 -0.2353  1.3455
 6706SOL    HW221569   3.648   0.094   4.996 -0.4505 -0.4319 -1.4313
 6707SOL     OW21570   3.105   3.276   1.971 -0.2157 -0.1010 -0.2866
 6707SOL    HW121571   3.140   3.194   1.934  0.3651  0.7419 -1.6806
 6707SOL    HW221572   3.044   3.308   1.905 -0.6101  0.4933  0.3492
 6708SOL     OW21573   0.411   5.506   5.751 -0.2731 -0.1459  0.2232
 6708SOL    HW121574   0.375   5.445   5.688  1.5391 -0.7693 -0.2530
 6708SOL    HW221575   0.335   5.551   5.787 -1.6094 -2.2420  0.1538
 6709SOL     OW21576   6.831   6.924   6.654  0.3622  0.0204  0.1789
 6709SOL    HW121577   6.893   6.860   6.620  0.5866 -1.0092  2.3511
 6709SOL    HW221578   6.786   6.879   6.726 -3.4200  0.4920 -1.6265
 6710SOL     OW21579   2.515   6.646   5.857 -0.1017 -0.0071  0.1774
 6710SOL    HW121580   2.582   6.659   5.790 -0.2066  0.3067  0.1343
 6710SOL    HW221581   2.551   6.688   5.935 -0.7785  1.2498 -0.1665
 6711SOL     OW21582   1.612   0.710   1.295  0.0506  0.0984 -0.0557
 6711SOL    HW121583   1.563   0.666   1.226 -1.0572 -0.4632  1.0470
 6711SOL    HW221584   1.685   0.752   1.249  0.0070 -1.1949 -1.4139
 6712SOL     OW21585   2.270   1.342   5.351  0.0812  0.9275 -0.3623
 6712SOL    HW121586   2.230   1.255   5.346  1.0398  0.5219 -1.5021
 6712SOL    HW221587   2.203   1.397   5.392  0.0099 -0.6490  1.8449
 6713SOL     OW21588   3.994   6.408   3.209  0.5124 -0.2601 -0.3138
 6713SOL    HW121589   3.945   6.490   3.201 -0.3910 -0.8014 -0.4485
 6713SOL    HW221590   4.084   6.435   3.228 -0.0426  0.7334  1.0606
 6714SOL     OW21591   2.673   5.770   0.235 -0.3481 -0.2971  0.0289
 6714SOL    HW121592   2.588   5.739   0.205 -0.6685  0.9857 -0.4477
 6714SOL    HW221593   2.714   5.809   0.158  0.7334 -0.9844  0.2249
 6715SOL     OW21594   4.432   4.618   2.288  0.0797  0.4911 -0.6782
 6715SOL    HW121595   4.467   4.701   2.320  0.2873  0.3712 -0.5940
 6715SOL    HW221596   4.480   4.551   2.336 -0.2936  0.3251 -0.5333
 6716SOL     OW21597   6.103   6.565   4.020 -0.1042  0.3873 -0.3219
 6716SOL    HW121598   6.154   6.535   4.096 -0.9707 -1.8546 -0.5413
 6716SOL    HW221599   6.162   6.553   3.946  0.3180  1.4103 -0.1678
 6717SOL     OW21600   5.756   4.182   6.496  0.1689 -0.5966  0.0261
 6717SOL    HW121601   5.720   4.263   6.532  0.8920  0.7726 -2.1345
 6717SOL    HW221602   5.716   4.113   6.549  0.2130  1.1495  2.5484
 6718SOL     OW21603   0.433   0.836   2.212  0.0769 -0.3651  0.5432
 6718SOL    HW121604   0.441   0.928   2.238  0.4974 -0.5802  1.2037
 6718SOL    HW221605   0.362   0.802   2.266 -0.6448 -0.2317 -0.2938
 6719SOL     OW21606   4.841   5.550   2.005 -0.0643  0.0908  0.2236
 6719SOL    HW121607   4.934   5.540   2.027  0.3559 -1.5636 -1.9186
 6719SOL    HW221608   4.794   5.504   2.074  0.8041 -0.2109  0.6219
 6720SOL     OW21609   0.704   1.364   2.160  0.5996 -0.5856  0.2388
 6720SOL    HW121610   0.615   1.355   2.196  0.5979  2.7396  1.4160
 6720SOL    HW221611   0.692   1.405   2.074  0.9662 -1.1812 -0.1042
 6721SOL     OW21612   0.137   6.245   6.772  0.1718 -0.6522 -0.0339
 6721SOL    HW121613   0.140   6.225   6.678  0.8371  0.5318 -0.2863
 6721SOL    HW221614   0.115   6.162   6.814 -0.4445 -1.1310 -1.2627
 6722SOL     OW21615   0.326   5.569   4.792 -0.0343  0.2718 -0.1070
 6722SOL    HW121616   0.232   5.574   4.808  0.3343  0.0016  2.5521
 6722SOL    HW221617   0.357   5.659   4.802  0.1140  0.2136 -0.0362
 6723SOL     OW21618   5.290   5.207   0.667 -0.4876 -0.2587  0.0588
 6723SOL    HW121619   5.326   5.226   0.754  1.6902 -2.8132 -0.1787
 6723SOL    HW221620   5.222   5.141   0.684  0.0747 -0.9052 -0.1740
 6724SOL     OW21621   3.829   4.262   2.374 -0.1593  0.0165  0.0232
 6724SOL    HW121622   3.789   4.231   2.456  0.7485  0.2730  0.5768
 6724SOL    HW221623   3.855   4.183   2.328  1.2356 -0.1092  0.9672
 6725SOL     OW21624   0.984   4.094   5.714 -0.2573 -0.0351  0.6224
 6725SOL    HW121625   0.936   4.031   5.660  0.9033 -0.7489  0.3859
 6725SOL    HW221626   1.026   4.153   5.652 -0.8616  0.6316  0.8312
 6726SOL     OW21627   1.928   3.371   3.631  0.1488  0.3610 -0.2018
 6726SOL    HW121628   1.937   3.285   3.671  1.0526  1.0235  1.0908
 6726SOL    HW221629   1.868   3.419   3.688 -1.3315  0.2393 -1.5736
 6727SOL     OW21630   2.764   5.797   5.433  0.1000 -0.4912 -0.6077
 6727SOL    HW121631   2.833   5.789   5.499  0.7201 -0.7286 -1.2772
 6727SOL    HW221632   2.809   5.827   5.354 -0.5792 -0.5433 -1.0223
 6728SOL     OW21633   3.235   1.137   1.485  0.1707 -0.1880 -0.1674
 6728SOL    HW121634   3.164   1.151   1.548 -0.4523  1.3939 -1.1447
 6728SOL    HW221635   3.192   1.144   1.400  1.1383 -1.4939 -0.7777
 6729SOL     OW21636   1.561   0.007   7.046  0.1695 -0.1845 -0.0596
 6729SOL    HW121637   1.624   0.007   7.119  0.6208 -3.3622 -0.2699
 6729SOL    HW221638   1.504  -0.068   7.064 -1.7189  0.8378 -1.4205
 6730SOL     OW21639   1.770   0.178   4.020  0.4766  0.0113  0.0222
 6730SOL    HW121640   1.830   0.252   4.011  1.1663 -0.5035  0.2847
 6730SOL    HW221641   1.684   0.219   4.032  1.0719  0.8205  1.9543
 6731SOL     OW21642   6.725   1.499   1.997  0.3626 -0.1613  0.2144
 6731SOL    HW121643   6.802   1.454   1.963  0.1278  0.2343 -0.8815
 6731SOL    HW221644   6.684   1.435   2.055  1.2699 -0.5337  0.4629
 6732SOL     OW21645   6.206   5.329   7.067  0.0716  0.0274 -0.0459
 6732SOL    HW121646   6.226   5.244   7.028 -1.6937 -0.4987  0.1381
 6732SOL    HW221647   6.290   5.359   7.103  0.9022 -1.2250 -0.8636
 6733SOL     OW21648   4.121   5.584   0.275  0.0556  0.5847 -0.7012
 6733SOL    HW121649   4.134   5.538   0.359  0.5192  1.6746 -0.1569
 6733SOL    HW221650   4.157   5.524   0.210  0.7058  0.1900 -0.0018
 6734SOL     OW21651   7.034   6.873   1.949 -0.3802  0.5767 -0.3115
 6734SOL    HW121652   7.074   6.788   1.931 -0.7538  0.2622  0.3030
 6734SOL    HW221653   7.069   6.898   2.035  1.8395  2.3242 -1.6364
 6735SOL     OW21654   1.867   1.707   6.047 -0.1218 -0.7070 -0.1816
 6735SOL    HW121655   1.818   1.666   5.975 -0.6292 -1.5705  0.6258
 6735SOL    HW221656   1.933   1.760   6.004 -1.1986 -0.2229 -1.2977
 6736SOL     OW21657   2.750   5.678   4.682  0.2610  0.5079  0.1079
 6736SOL    HW121658   2.696   5.630   4.620  1.0567  0.3195 -0.4560
 6736SOL    HW221659   2.795   5.610   4.733  0.6939  0.6512 -0.0777
 6737SOL     OW21660   6.236   4.384   3.394  0.6564  0.1153  0.7581
 6737SOL    HW121661   6.275   4.349   3.314  2.8645  1.4482  1.1616
 6737SOL    HW221662   6.274   4.472   3.403 -4.3428  2.6998 -0.0552
 6738SOL     OW21663   1.285   2.146   4.905 -0.1192 -0.1187  0.4208
 6738SOL    HW121664   1.269   2.130   4.998 -1.1390 -0.4747  0.1962
 6738SOL    HW221665   1.198   2.150   4.866  0.3133 -1.1227 -0.7162
 6739SOL     OW21666   0.801   4.546   5.861  0.1323  0.7539  0.3897
 6739SOL    HW121667   0.892   4.532   5.837  0.0519  0.0844  0.4686
 6739SOL    HW221668   0.790   4.641   5.860  0.3356  0.7798 -1.3983
 6740SOL     OW21669   1.324   5.438   3.784 -0.2319 -0.2198 -0.1821
 6740SOL    HW121670   1.417   5.415   3.782 -0.1942 -0.1169  0.2715
 6740SOL    HW221671   1.298   5.426   3.875 -0.4194  0.7039 -0.0972
 6741SOL     OW21672   5.225   2.414   6.131  0.3493  0.1183  0.1234
 6741SOL    HW121673   5.150   2.386   6.183  0.5162  1.3251  1.0653
 6741SOL    HW221674   5.187   2.465   6.060  0.0521 -2.2743 -1.5497
 6742SOL     OW21675   4.634   0.575   4.433 -0.1659  0.3001  0.0612
 6742SOL    HW121676   4.639   0.490   4.476 -0.7545  0.3134  0.1688
 6742SOL    HW221677   4.597   0.557   4.347  0.6909  0.3178 -0.3248
 6743SOL     OW21678   2.242   7.104   0.834  0.1801  0.4379  0.7390
 6743SOL    HW121679   2.300   7.173   0.866 -1.0136  1.4457  0.8433
 6743SOL    HW221680   2.154   7.143   0.839 -0.3406 -0.3902 -1.0785
 6744SOL     OW21681   0.904   6.977   0.380 -0.3336 -0.2075  0.1284
 6744SOL    HW121682   0.905   6.984   0.285 -0.0576  0.0282  0.1471
 6744SOL    HW221683   0.827   6.924   0.399 -0.1241 -0.6584 -0.2545
 6745SOL     OW21684   1.900   1.886   2.126 -0.0212  0.4675  0.8793
 6745SOL    HW121685   1.950   1.858   2.049  1.8662  1.5688  1.6293
 6745SOL    HW221686   1.926   1.977   2.139 -2.6128  1.2724  1.0922
 6746SOL     OW21687   2.210   0.559   5.610 -0.2667  0.5875 -0.2671
 6746SOL    HW121688   2.188   0.488   5.550 -1.5634  0.0187  0.8228
 6746SOL    HW221689   2.145   0.627   5.592 -0.7746  0.3416  0.5756
 6747SOL     OW21690   5.084   6.263   5.691  0.2420  0.0326  0.3465
 6747SOL    HW121691   5.114   6.285   5.603  1.6947 -0.0015  0.8062
 6747SOL    HW221692   5.121   6.176   5.708  1.0864  0.5810  1.4602
 6748SOL     OW21693   6.952   6.388   6.048 -0.0427 -0.1333 -1.0415
 6748SOL    HW121694   6.884   6.322   6.066 -2.0480  1.8131 -0.9803
 6748SOL    HW221695   6.974   6.423   6.134  0.0850  0.1147 -1.1743
 6749SOL     OW21696   4.882   6.786   6.957 -0.3062  0.3179 -0.2515
 6749SOL    HW121697   4.976   6.780   6.938  0.1654 -0.7620  1.9719
 6749SOL    HW221698   4.858   6.698   6.988 -2.2963  0.3193 -1.5984
 6750SOL     OW21699   6.977   4.740   4.460  0.1119 -0.0507 -0.3620
 6750SOL    HW121700   7.068   4.709   4.451  0.0364 -0.4493  0.1683
 6750SOL    HW221701   6.934   4.710   4.380  0.8188  1.5629 -1.4140
 6751SOL     OW21702   2.772   6.535   0.332 -0.0885  0.0956 -0.4719
 6751SOL    HW121703   2.703   6.516   0.268 -0.8628  0.8919  0.1188
 6751SOL    HW221704   2.748   6.484   0.409  0.9461 -1.0074 -0.8461
 6752SOL     OW21705   5.671   4.568   6.285  0.1730 -0.4778  0.6352
 6752SOL    HW121706   5.679   4.492   6.342  1.6648 -1.0028 -0.2024
 6752SOL    HW221707   5.577   4.585   6.281 -0.0794 -1.3263  2.0453
 6753SOL     OW21708   0.569   0.885   3.748 -0.9029 -0.4995 -0.1184
 6753SOL    HW121709   0.565   0.799   3.789  0.2611 -0.2790  0.5022
 6753SOL    HW221710   0.594   0.868   3.658 -0.3300 -0.8081  0.0926
 6754SOL     OW21711   2.363   7.082   1.153  0.3623  0.2835 -0.1345
 6754SOL    HW121712   2.294   7.019   1.173  0.7463 -0.1605 -0.2111
 6754SOL    HW221713   2.324   7.139   1.087  0.3450 -0.4766 -0.7977
 6755SOL     OW21714   5.048   6.250   1.835  0.0130  0.1543 -0.2979
 6755SOL    HW121715   5.093   6.211   1.761 -1.6001 -1.0142 -0.7344
 6755SOL    HW221716   5.030   6.176   1.894 -0.2949  0.7716  0.4049
 6756SOL     OW21717   5.420   4.385   4.523 -0.6014 -0.2444 -0.0233
 6756SOL    HW121718   5.449   4.445   4.455 -1.4055 -0.2342 -0.3754
 6756SOL    HW221719   5.393   4.306   4.476  0.5236 -0.9205  0.4430
 6757SOL     OW21720   3.357   3.166   3.595 -0.0728 -0.0856  0.0364
 6757SOL    HW121721   3.420   3.173   3.523  0.6503  1.4211  0.7668
 6757SOL    HW221722   3.382   3.086   3.642  1.1632  0.3679  0.1750
 6758SOL     OW21723   5.910   1.166   0.618  0.2493 -0.1778 -0.0537
 6758SOL    HW121724   5.898   1.259   0.639  1.1236  0.1152 -0.7897
 6758SOL    HW221725   5.825   1.138   0.583  0.3596  0.7040 -1.0775
 6759SOL     OW21726   5.483   5.553   2.762  0.1811  0.5359  0.0431
 6759SOL    HW121727   5.527   5.536   2.846  1.0690 -2.4711 -0.8811
 6759SOL    HW221728   5.391   5.537   2.780  0.5204 -1.5127  0.2219
 6760SOL     OW21729   1.152   6.209   6.742 -0.0514 -0.6510 -0.0115
 6760SOL    HW121730   1.116   6.288   6.782  0.3234 -0.4571 -0.0477
 6760SOL    HW221731   1.246   6.214   6.762  0.1251 -0.5937 -0.8377
 6761SOL     OW21732   2.013   0.562   1.112  0.2340  0.0955  0.3045
 6761SOL    HW121733   1.996   0.572   1.018 -0.8725 -1.5009  0.2963
 6761SOL    HW221734   2.095   0.608   1.126  0.2578  0.6573 -1.3860
 6762SOL     OW21735   1.684   5.655   1.334 -0.2573  0.0301  0.5347
 6762SOL    HW121736   1.616   5.605   1.290 -0.1622  0.0959  0.3150
 6762SOL    HW221737   1.765   5.632   1.289 -0.2052  0.3358  0.4710
 6763SOL     OW21738   2.204   5.226   6.593 -0.3846 -0.2728  0.2399
 6763SOL    HW121739   2.262   5.220   6.669 -1.8293 -1.3064  1.3184
 6763SOL    HW221740   2.248   5.176   6.525 -0.0706 -1.1922  1.0923
 6764SOL     OW21741   2.322   2.503   0.972  0.3096 -0.5536  0.0802
 6764SOL    HW121742   2.320   2.477   0.879 -0.4585 -1.2261  0.2745
 6764SOL    HW221743   2.241   2.552   0.984  0.2983 -0.6637  0.4477
 6765SOL     OW21744   1.437   3.112   0.643  0.0207 -0.0527 -0.2653
 6765SOL    HW121745   1.467   3.040   0.698  1.1663 -0.2816 -1.1360
 6765SOL    HW221746   1.389   3.170   0.702 -0.6883 -1.3741  0.5125
 6766SOL     OW21747   2.182   7.041   2.155 -0.1362 -0.2206  0.0409
 6766SOL    HW121748   2.245   6.997   2.099 -1.0847  1.3705 -2.4396
 6766SOL    HW221749   2.203   7.134   2.147 -1.0458  0.1354  1.4365
 6767SOL     OW21750   1.650   6.855   6.541 -0.3615 -0.1421  0.0112
 6767SOL    HW121751   1.654   6.776   6.595 -1.3016 -0.3974 -0.2761
 6767SOL    HW221752   1.703   6.919   6.588  1.6684 -1.3753 -0.5015
 6768SOL     OW21753   4.524   6.175   0.837  0.4045  0.6210  0.2052
 6768SOL    HW121754   4.522   6.079   0.835  1.3907  0.4697  2.5362
 6768SOL    HW221755   4.614   6.198   0.813 -0.3461  1.1489 -2.3817
 6769SOL     OW21756   2.472   6.109   0.022 -0.3760  0.2510  0.2834
 6769SOL    HW121757   2.549   6.146   0.065 -1.9035  4.0112  0.1160
 6769SOL    HW221758   2.426   6.061   0.091  1.2715 -0.7527  0.7373
 6770SOL     OW21759   7.070   5.946   5.674  0.1206 -0.7744  0.0243
 6770SOL    HW121760   7.078   6.039   5.697  1.7867 -1.1139  1.0131
 6770SOL    HW221761   7.004   5.912   5.735  0.0788 -0.3964  0.1954
 6771SOL     OW21762   2.910   6.259   3.248 -0.0836  0.0205 -0.3066
 6771SOL    HW121763   2.938   6.342   3.209 -0.6269  1.0815  1.4260
 6771SOL    HW221764   2.932   6.268   3.341 -2.6491 -0.6101  0.4433
 6772SOL     OW21765   7.082   1.120   6.540 -0.3075  0.0646  0.0360
 6772SOL    HW121766   7.148   1.050   6.545  0.2122  0.5529  0.1222
 6772SOL    HW221767   7.045   1.123   6.628 -0.2988 -0.0711  0.0453
 6773SOL     OW21768   2.748   5.146   0.969  0.3325  0.3378 -0.2038
 6773SOL    HW121769   2.822   5.192   1.008  0.2482  0.1845  0.1487
 6773SOL    HW221770   2.687   5.134   1.042 -0.6361  1.6625 -0.7719
 6774SOL     OW21771   4.592   1.467   6.549  0.1420 -0.5272  0.0402
 6774SOL    HW121772   4.619   1.558   6.562 -1.3323  0.1172 -1.1370
 6774SOL    HW221773   4.660   1.415   6.593  0.9730  1.1288  0.7903
 6775SOL     OW21774   4.248   1.815   0.986  0.1146  0.8692 -0.4907
 6775SOL    HW121775   4.246   1.906   1.015  2.8153  1.2999 -1.4111
 6775SOL    HW221776   4.330   1.780   1.021 -0.3984 -0.9297 -0.9857
 6776SOL     OW21777   2.395   6.579   3.034 -0.3443 -0.5952 -0.7700
 6776SOL    HW121778   2.485   6.546   3.032  0.1547  0.5143  1.2527
 6776SOL    HW221779   2.403   6.672   3.013 -0.5537  0.2114  2.2151
 6777SOL     OW21780   4.409   4.679   6.539 -0.1091 -0.3558 -0.0048
 6777SOL    HW121781   4.438   4.681   6.631 -0.7167  2.0120  0.2120
 6777SOL    HW221782   4.331   4.735   6.538  0.0274 -0.1341 -2.0247
 6778SOL     OW21783   0.318   2.583   3.591 -0.4906  0.6391 -0.0108
 6778SOL    HW121784   0.364   2.660   3.625 -0.0010  0.0191  0.7452
 6778SOL    HW221785   0.228   2.614   3.576  0.1279  1.8593 -1.5056
 6779SOL     OW21786   6.302   7.059   1.260 -0.0317  0.2330 -0.5442
 6779SOL    HW121787   6.371   7.125   1.258  0.2523 -0.0699 -0.8759
 6779SOL    HW221788   6.341   6.981   1.220 -0.0727 -0.4251  0.6396
 6780SOL     OW21789   1.398   2.218   4.665  0.3053 -0.0315 -0.1198
 6780SOL    HW121790   1.387   2.205   4.759  0.6657 -0.9104 -0.1859
 6780SOL    HW221791   1.433   2.135   4.634  1.7491  0.7934 -0.7771
 6781SOL     OW21792   1.390   2.671   2.067 -0.3671 -0.0077 -0.8476
 6781SOL    HW121793   1.312   2.616   2.062  0.2400 -0.9252 -0.3878
 6781SOL    HW221794   1.461   2.611   2.085  0.2668  0.9828  0.0628
 6782SOL     OW21795   5.925   4.105   1.245 -0.1465 -0.5414 -0.3355
 6782SOL    HW121796   5.959   4.164   1.313 -2.4826 -0.6441  1.0315
 6782SOL    HW221797   5.831   4.121   1.244 -0.5542 -2.6260 -1.5552
 6783SOL     OW21798   5.049   2.644   5.468  0.3729 -0.2516 -0.0479
 6783SOL    HW121799   5.061   2.669   5.376  0.8048 -2.7418 -0.7637
 6783SOL    HW221800   5.130   2.598   5.490 -0.5633 -1.4978  0.9058
 6784SOL     OW21801   6.331   3.995   2.934 -0.6523  0.1159  0.5628
 6784SOL    HW121802   6.266   3.984   2.865 -0.1269 -2.5297  0.4068
 6784SOL    HW221803   6.377   4.076   2.911 -1.3834  0.0111 -1.4219
 6785SOL     OW21804   4.038   5.167   3.494  0.7484 -0.3882  0.2669
 6785SOL    HW121805   3.975   5.235   3.471  0.9917 -0.3668 -0.3520
 6785SOL    HW221806   4.055   5.180   3.588 -1.3525 -1.3861  0.8470
 6786SOL     OW21807   4.500   0.388   6.543  0.3931  0.2251 -0.3151
 6786SOL    HW121808   4.418   0.429   6.518 -0.2825 -1.9816 -2.0701
 6786SOL    HW221809   4.562   0.412   6.474  0.5989  0.0755 -0.1840
 6787SOL     OW21810   6.713   7.016   1.031  0.3861  0.0285  0.3595
 6787SOL    HW121811   6.744   7.083   1.092 -2.5581 -0.8508  3.0784
 6787SOL    HW221812   6.759   6.936   1.058 -0.0898 -0.1223  0.7531
 6788SOL     OW21813   6.860   0.231   0.576 -0.2000 -0.2860  0.0691
 6788SOL    HW121814   6.938   0.184   0.546 -0.0948  0.4241 -0.8072
 6788SOL    HW221815   6.816   0.169   0.634  2.3066  0.1355  2.7086
 6789SOL     OW21816   1.263   6.699   0.801 -0.0392  0.6448 -0.4326
 6789SOL    HW121817   1.327   6.666   0.737 -0.9111  0.7434 -1.3881
 6789SOL    HW221818   1.181   6.657   0.775 -0.6855  1.7507 -0.2063
 6790SOL     OW21819   6.590   6.272   4.615 -0.2397 -0.1596  0.1163
 6790SOL    HW121820   6.565   6.227   4.534  0.8717  1.4581 -1.1900
 6790SOL    HW221821   6.526   6.342   4.625 -0.1358 -0.1034  0.4219
 6791SOL     OW21822   4.117   7.025   5.499 -0.3254  0.4030  0.0495
 6791SOL    HW121823   4.074   7.107   5.523 -2.0347 -0.3349 -0.3698
 6791SOL    HW221824   4.151   7.040   5.411 -0.4598  0.7202  0.0513
 6792SOL     OW21825   3.044   2.571   3.340 -0.2741  0.1362  0.2337
 6792SOL    HW121826   3.097   2.600   3.265 -0.6349 -0.9010 -0.4451
 6792SOL    HW221827   2.957   2.608   3.323 -0.8455 -1.5954 -0.8490
 6793SOL     OW21828   1.129   2.484   4.945  0.1629 -0.5307  0.3109
 6793SOL    HW121829   1.184   2.468   4.869 -0.1658  0.0789 -0.0674
 6793SOL    HW221830   1.063   2.547   4.914  1.0633  1.1075  1.5482
 6794SOL     OW21831   7.098   2.199   2.482 -0.8885 -0.1876  0.5894
 6794SOL    HW121832   7.191   2.198   2.506 -0.7061 -0.3997 -0.0959
 6794SOL    HW221833   7.053   2.167   2.560 -0.2748 -1.3315  0.5067
 6795SOL     OW21834   2.588   2.857   0.395 -0.3432 -0.1805 -0.2114
 6795SOL    HW121835   2.596   2.781   0.453  0.2309 -0.3518 -0.5037
 6795SOL    HW221836   2.564   2.929   0.453 -0.1461 -0.4258  0.1795
 6796SOL     OW21837   3.255   1.024   2.619 -0.6398 -0.1827  0.1574
 6796SOL    HW121838   3.316   1.048   2.689 -1.8335 -0.0910  1.2122
 6796SOL    HW221839   3.189   1.093   2.620 -0.5853 -0.0976 -1.1946
 6797SOL     OW21840   0.696   5.940   6.823 -0.0758 -0.1950 -0.0816
 6797SOL    HW121841   0.630   5.894   6.772 -1.0340  2.6449 -1.6648
 6797SOL    HW221842   0.779   5.899   6.799 -0.8807 -1.2016 -1.2329
 6798SOL     OW21843   2.031   3.799   1.933  0.4687  0.1502  0.0329
 6798SOL    HW121844   1.979   3.719   1.943 -1.7753  1.3537 -1.1565
 6798SOL    HW221845   2.003   3.855   2.006  0.5684  0.5889 -0.2618
 6799SOL     OW21846   5.787   4.899   7.019 -0.2058 -0.1986  0.2818
 6799SOL    HW121847   5.817   4.817   7.058 -0.6834 -0.9316 -0.8434
 6799SOL    HW221848   5.702   4.915   7.061 -0.3106 -0.5028  0.1839
 6800SOL     OW21849   2.401   3.473   5.275  0.2344 -0.0257 -0.3780
 6800SOL    HW121850   2.470   3.500   5.336  0.9001 -3.4112  0.5629
 6800SOL    HW221851   2.331   3.440   5.331 -0.9848  0.7527 -1.4032
 6801SOL     OW21852   1.522   0.521   0.542  0.0987 -0.2577 -0.5754
 6801SOL    HW121853   1.526   0.586   0.472  1.5692  0.0376 -0.2441
 6801SOL    HW221854   1.612   0.515   0.575 -0.5200 -0.4668  1.1981
 6802SOL     OW21855   4.649   2.974   7.058 -0.0489  0.0852  0.0480
 6802SOL    HW121856   4.621   3.055   7.016 -0.1501  0.2318  0.4028
 6802SOL    HW221857   4.742   2.988   7.076 -0.3257  0.5775  1.1647
 6803SOL     OW21858   5.793   6.840   5.776 -0.4623  0.0895  0.6282
 6803SOL    HW121859   5.754   6.753   5.778 -1.4770  0.1590 -3.9695
 6803SOL    HW221860   5.886   6.825   5.757 -0.0195  0.0644  2.6189
 6804SOL     OW21861   3.395   5.712   6.404 -0.1230  0.0629  0.6029
 6804SOL    HW121862   3.446   5.729   6.484  1.6059 -0.7198 -0.2773
 6804SOL    HW221863   3.434   5.633   6.367 -2.5839 -1.0994  0.3087
 6805SOL     OW21864   3.700   5.496   3.226 -0.4128 -1.1194 -0.0011
 6805SOL    HW121865   3.663   5.536   3.148 -0.5105 -0.4668  0.3786
 6805SOL    HW221866   3.625   5.478   3.283 -0.2605 -0.8199  0.2976
 6806SOL     OW21867   0.175   3.865   6.550  0.3074  0.0213  0.0433
 6806SOL    HW121868   0.145   3.888   6.638 -0.1241  1.6233 -0.4843
 6806SOL    HW221869   0.232   3.790   6.563  1.1495  0.9110  1.8244
 6807SOL     OW21870   6.182   5.212   1.068  0.2047 -0.1806 -0.4714
 6807SOL    HW121871   6.098   5.247   1.099  0.2838 -1.5202  1.4386
 6807SOL    HW221872   6.228   5.187   1.148  1.6733 -1.1792 -1.5806
 6808SOL     OW21873   0.928   4.232   2.019 -0.1527  0.2150 -0.4865
 6808SOL    HW121874   0.914   4.152   2.071  1.6578  0.5623  0.6284
 6808SOL    HW221875   1.023   4.240   2.013 -0.2915  2.2235 -0.6870
 6809SOL     OW21876   3.286   4.229   2.811 -0.1441 -0.0521  0.5802
 6809SOL    HW121877   3.225   4.167   2.771 -0.0124 -1.5389  2.5001
 6809SOL    HW221878   3.331   4.270   2.737 -1.8431 -0.5771 -0.8208
 6810SOL     OW21879   5.399   1.416   2.198  0.5310  0.1323  0.0327
 6810SOL    HW121880   5.469   1.481   2.195  1.4839 -0.8290  0.7618
 6810SOL    HW221881   5.342   1.439   2.124  0.7972  1.8194  0.3202
 6811SOL     OW21882   5.565   4.175   0.324 -0.3458 -0.4597 -0.0943
 6811SOL    HW121883   5.500   4.122   0.370 -0.2011 -1.9036 -1.4598
 6811SOL    HW221884   5.531   4.265   0.328 -0.3630 -0.5244  2.6853
 6812SOL     OW21885   5.020   0.767   2.750  0.1307 -0.0626  0.8117
 6812SOL    HW121886   5.076   0.826   2.700 -1.6082  1.6015  0.6963
 6812SOL    HW221887   5.053   0.772   2.840  1.6007 -0.9946  0.3644
 6813SOL     OW21888   5.553   0.958   4.975  0.2865 -0.5389  0.0505
 6813SOL    HW121889   5.590   0.885   5.024  1.6317  0.2682  0.2624
 6813SOL    HW221890   5.458   0.945   4.981  0.4478 -1.1401  1.8281
 6814SOL     OW21891   3.345   5.495   4.407  0.0944 -0.3583  0.8592
 6814SOL    HW121892   3.335   5.400   4.404  0.1171 -0.3484  0.4217
 6814SOL    HW221893   3.318   5.524   4.320  0.7651 -0.0263  0.7567
 6815SOL     OW21894   5.939   5.135   1.336 -0.7393 -0.0549  0.2302
 6815SOL    HW121895   6.016   5.083   1.313 -1.5057 -0.3883 -1.8232
 6815SOL    HW221896   5.961   5.174   1.421  1.3546 -0.7595  0.0831
 6816SOL     OW21897   4.298   3.606   3.780  0.5086 -0.2193  0.3318
 6816SOL    HW121898   4.292   3.692   3.738  1.8270 -0.4505 -0.3939
 6816SOL    HW221899   4.361   3.558   3.726  1.3885 -0.9228  1.9417
 6817SOL     OW21900   3.613   2.489   4.329 -0.1618 -0.1532  0.2684
 6817SOL    HW121901   3.560   2.471   4.251  2.3140 -1.2613 -1.2880
 6817SOL    HW221902   3.557   2.464   4.403 -2.0901 -0.3811 -1.1905
 6818SOL     OW21903   4.240   4.495   1.315  0.0511 -0.2721  0.0394
 6818SOL    HW121904   4.198   4.570   1.356 -1.3529 -0.7369 -0.4664
 6818SOL    HW221905   4.279   4.446   1.387  1.8810  1.4219  0.2812
 6819SOL     OW21906   4.081   3.755   6.081  0.3444 -0.1168  0.2862
 6819SOL    HW121907   4.135   3.814   6.133 -0.0588  0.9042 -0.4120
 6819SOL    HW221908   3.996   3.799   6.075 -0.0103 -0.8345 -0.1444
 6820SOL     OW21909   0.370   4.191   1.633 -0.1688  0.5088  0.3099
 6820SOL    HW121910   0.379   4.164   1.724 -0.4134  1.5279  0.6500
 6820SOL    HW221911   0.439   4.256   1.620  0.8354 -0.6920 -0.6787
 6821SOL     OW21912   3.979   2.748   0.757  0.1588  0.1794  0.5276
 6821SOL    HW121913   3.899   2.725   0.805  0.0371 -0.0330  0.2261
 6821SOL    HW221914   4.008   2.665   0.720  0.5447  0.2491  0.6722
 6822SOL     OW21915   1.565   0.366   1.319  0.0106  0.0475 -0.1029
 6822SOL    HW121916   1.634   0.391   1.258 -0.9824  0.0537 -1.2471
 6822SOL    HW221917   1.558   0.271   1.310 -0.0235  0.0244  0.1464
 6823SOL     OW21918   2.932   2.659   6.463  0.5546  0.9190 -0.2179
 6823SOL    HW121919   3.024   2.633   6.465  0.3322  0.1501  0.2274
 6823SOL    HW221920   2.930   2.732   6.400  1.2837  0.2371 -1.0662
 6824SOL     OW21921   4.249   6.181   1.653 -0.0134  0.1856  0.1312
 6824SOL    HW121922   4.239   6.216   1.565 -1.4447  1.5715  0.7825
 6824SOL    HW221923   4.238   6.087   1.644 -1.2098  0.4144 -1.0427
 6825SOL     OW21924   6.309   0.257   3.812 -0.1447 -0.0892  0.4415
 6825SOL    HW121925   6.266   0.211   3.740  0.3533  0.9290 -0.5416
 6825SOL    HW221926   6.253   0.242   3.887 -1.4082 -0.0614 -0.4622
 6826SOL     OW21927   1.485   3.944   1.053  0.2274  0.0958  0.2251
 6826SOL    HW121928   1.460   3.854   1.032 -0.5677  0.0532  1.2578
 6826SOL    HW221929   1.429   3.998   0.996  1.2924 -0.0446 -1.0027
 6827SOL     OW21930   1.831   3.265   2.906 -0.1944 -0.1025 -0.2959
 6827SOL    HW121931   1.885   3.344   2.906  1.1620 -0.9920 -0.3193
 6827SOL    HW221932   1.889   3.196   2.939  0.0633 -1.9641 -4.0399
 6828SOL     OW21933   6.055   2.592   1.005 -0.5604 -0.1507 -0.2974
 6828SOL    HW121934   6.041   2.673   0.957  1.9043  0.2296 -0.4874
 6828SOL    HW221935   6.004   2.602   1.085 -1.3896  0.9868 -0.9444
 6829SOL     OW21936   0.615   6.620   2.905 -0.0931 -0.1147  0.2302
 6829SOL    HW121937   0.602   6.629   2.810 -1.9428 -1.1708  0.3412
 6829SOL    HW221938   0.702   6.579   2.913  0.2875  0.4020 -0.9737
 6830SOL     OW21939   0.380   4.364   6.599 -0.3987 -0.0164 -0.1357
 6830SOL    HW121940   0.369   4.295   6.534 -2.1321  0.0336  0.0556
 6830SOL    HW221941   0.446   4.329   6.659 -0.1628 -0.8699 -0.8672
 6831SOL     OW21942   3.916   5.951   7.062  0.0399  0.9355 -0.2200
 6831SOL    HW121943   3.994   5.957   7.007  0.9079  0.1208  0.8734
 6831SOL    HW221944   3.940   5.995   7.143 -0.9702  1.4736 -0.1932
 6832SOL     OW21945   0.015   5.885   1.839 -0.7078  0.3896  0.0097
 6832SOL    HW121946   0.108   5.875   1.819 -1.1324 -1.9573 -1.1416
 6832SOL    HW221947   0.004   5.842   1.924 -0.6972  0.8601  0.2477
 6833SOL     OW21948   6.214   0.582   3.582 -0.4424 -0.1681 -0.1316
 6833SOL    HW121949   6.124   0.613   3.576 -0.1414  1.0416  1.0144
 6833SOL    HW221950   6.251   0.593   3.495 -1.1541  0.1389 -0.3926
 6834SOL     OW21951   3.798   1.858   5.377  0.1941 -0.1177 -0.5585
 6834SOL    HW121952   3.870   1.915   5.350  2.4392 -1.8310  1.3843
 6834SOL    HW221953   3.744   1.913   5.434  0.6291  0.8714 -1.0811
 6835SOL     OW21954   5.277   3.427   2.545  0.0644  0.2878  0.8358
 6835SOL    HW121955   5.250   3.404   2.456  0.9203 -0.9624  0.8715
 6835SOL    HW221956   5.224   3.503   2.567  0.2067  0.9541 -0.9468
 6836SOL     OW21957   5.890   0.962   4.551 -0.0346 -0.2884  0.0058
 6836SOL    HW121958   5.811   0.908   4.558  0.1063 -0.5055 -0.0972
 6836SOL    HW221959   5.946   0.916   4.488  0.0751 -0.0123 -0.0995
 6837SOL     OW21960   6.122   0.968   2.085 -0.9290  0.1301  0.4776
 6837SOL    HW121961   6.080   0.986   2.169  1.1985 -0.0181  1.6159
 6837SOL    HW221962   6.129   0.873   2.082 -0.1452  0.1812  0.5786
 6838SOL     OW21963   0.080   0.930   3.092 -0.1519  0.5620  0.4381
 6838SOL    HW121964   0.154   0.919   3.152 -0.5098  1.0265  0.9755
 6838SOL    HW221965   0.070   0.844   3.050  1.2202  0.7233 -0.2737
 6839SOL     OW21966   1.794   4.918   4.824 -0.5066  0.3583  0.0829
 6839SOL    HW121967   1.888   4.905   4.834 -0.4592  0.8223  0.3091
 6839SOL    HW221968   1.783   4.952   4.736 -0.1394  2.9438  0.9490
 6840SOL     OW21969   6.916   5.011   2.258  0.4328  0.0319 -0.9914
 6840SOL    HW121970   6.858   5.008   2.334 -1.2947 -2.0008 -2.3091
 6840SOL    HW221971   6.881   5.082   2.204  0.1635 -0.1275 -1.0275
 6841SOL     OW21972   6.105   4.061   0.416  0.0056  0.0682  0.2772
 6841SOL    HW121973   6.178   4.037   0.359 -0.4509  1.3542 -0.9102
 6841SOL    HW221974   6.031   4.073   0.357  0.4284  5.5658  0.3670
 6842SOL     OW21975   3.057   3.738   1.847 -1.0334 -0.0406 -0.1006
 6842SOL    HW121976   3.085   3.742   1.755 -0.3104 -0.5213  0.0931
 6842SOL    HW221977   2.963   3.720   1.842 -0.7952 -1.1923 -0.7503
 6843SOL     OW21978   2.527   5.812   0.873  0.7487 -0.0368 -0.6824
 6843SOL    HW121979   2.505   5.720   0.891  0.5994  0.1675  0.2417
 6843SOL    HW221980   2.492   5.828   0.785  0.1498 -0.6676 -0.5703
 6844SOL     OW21981   4.555   6.063   2.310 -0.1208 -0.2245  0.7760
 6844SOL    HW121982   4.517   5.990   2.262  1.5623 -0.0357 -0.9842
 6844SOL    HW221983   4.532   6.140   2.259  0.6968  0.1228  0.9176
 6845SOL     OW21984   5.413   3.313   6.317 -0.1278 -0.0844 -0.2036
 6845SOL    HW121985   5.395   3.252   6.246 -0.2788 -0.3956  0.1010
 6845SOL    HW221986   5.377   3.397   6.287 -1.0640 -0.4389 -0.0797
 6846SOL     OW21987   7.131   4.561   6.591  0.1537  0.1866 -0.6418
 6846SOL    HW121988   7.126   4.477   6.636  1.3599  1.0779  1.2798
 6846SOL    HW221989   7.217   4.561   6.549 -0.0538  0.2501 -1.0660
 6847SOL     OW21990   4.365   6.576   5.226 -0.0042  0.1434  0.2298
 6847SOL    HW121991   4.371   6.561   5.320  0.3884  1.0853  0.3620
 6847SOL    HW221992   4.325   6.663   5.217  2.6173  1.3842 -0.3925
 6848SOL     OW21993   0.795   0.804   5.856  0.0208  0.1854  0.2388
 6848SOL    HW121994   0.709   0.847   5.858 -0.1280 -0.1286  0.6855
 6848SOL    HW221995   0.820   0.804   5.763  0.6053  2.3745  0.3384
 6849SOL     OW21996   5.280   6.603   5.040 -0.1640 -0.0246 -0.6402
 6849SOL    HW121997   5.283   6.693   5.006 -1.4983  0.3388  0.1562
 6849SOL    HW221998   5.187   6.579   5.038 -0.2300 -0.2619  1.9810
 6850SOL     OW21999   5.389   4.928   4.383 -0.1802 -0.7409 -0.2019
 6850SOL    HW122000   5.376   5.015   4.421 -0.6689 -1.3574  1.1239
 6850SOL    HW222001   5.420   4.944   4.294  0.3799  0.7773  0.2458
 6851SOL     OW22002   0.311   5.338   1.833  0.1128 -0.0548 -0.0963
 6851SOL    HW122003   0.288   5.271   1.897 -2.1241 -0.1043 -0.8642
 6851SOL    HW222004   0.297   5.421   1.878 -0.8193 -0.0968 -0.2853
 6852SOL     OW22005   4.576   1.347   6.190 -0.2152 -0.2656  0.2700
 6852SOL    HW122006   4.622   1.293   6.255 -0.4259 -1.1443 -0.2867
 6852SOL    HW222007   4.496   1.298   6.171  0.0231 -0.2369 -0.9233
 6853SOL     OW22008   3.295   5.567   5.971  0.0023 -0.0530 -0.0774
 6853SOL    HW122009   3.282   5.524   6.056 -1.7179  2.4178  1.0349
 6853SOL    HW222010   3.242   5.516   5.910 -2.0378  0.4167  1.2070
 6854SOL     OW22011   2.009   1.613   5.222  0.1549 -0.0835  0.2348
 6854SOL    HW122012   2.072   1.595   5.152  0.5571 -0.7683  0.7573
 6854SOL    HW222013   2.003   1.708   5.225  0.9088 -0.0203 -0.0466
 6855SOL     OW22014   6.437   6.532   4.703 -0.4334 -0.6201  0.1501
 6855SOL    HW122015   6.489   6.612   4.698  0.0969 -1.0308 -1.4368
 6855SOL    HW222016   6.427   6.515   4.797 -0.8973  1.5008  0.5364
 6856SOL     OW22017   3.712   0.429   6.159 -0.2684  0.2201  0.0821
 6856SOL    HW122018   3.768   0.485   6.213 -1.0150  1.5366 -0.4683
 6856SOL    HW222019   3.724   0.341   6.196  0.0966  0.9016  1.6728
 6857SOL     OW22020   6.682   4.963   4.437  0.5966  0.1218  0.4374
 6857SOL    HW122021   6.593   4.964   4.472  0.2855 -1.5135 -0.2229
 6857SOL    HW222022   6.733   4.914   4.501  0.6795 -0.2778  0.0714
 6858SOL     OW22023   3.708   6.515   2.722 -0.5317 -0.0712  0.5626
 6858SOL    HW122024   3.703   6.420   2.728 -0.4595 -0.1659 -0.5269
 6858SOL    HW222025   3.619   6.542   2.700 -0.0174 -0.1857 -1.9957
 6859SOL     OW22026   6.203   1.182   6.550 -0.0253  0.4268  0.1120
 6859SOL    HW122027   6.211   1.249   6.482 -0.0535 -0.4816 -0.8188
 6859SOL    HW222028   6.271   1.118   6.528 -1.0053 -0.6287  0.0428
 6860SOL     OW22029   0.671   4.972   6.379 -0.2446 -0.5018  0.4332
 6860SOL    HW122030   0.701   4.896   6.328  1.1878 -0.2675  0.9008
 6860SOL    HW222031   0.701   4.954   6.468  1.9645  1.5620  0.1760
 6861SOL     OW22032   0.264   1.602   0.213 -0.5613  0.3775 -0.0845
 6861SOL    HW122033   0.233   1.623   0.301 -0.3655 -0.1402  0.1102
 6861SOL    HW222034   0.302   1.515   0.221 -1.3754 -0.0655 -0.8826
 6862SOL     OW22035   5.752   5.954   4.289 -0.2985  0.3917 -0.6938
 6862SOL    HW122036   5.733   5.964   4.196  0.8131 -0.0565 -0.9886
 6862SOL    HW222037   5.847   5.943   4.293 -0.4456 -0.7917  0.3805
 6863SOL     OW22038   4.428   0.392   0.225 -0.3823  0.1868 -0.0451
 6863SOL    HW122039   4.470   0.315   0.263 -0.9273 -0.4790 -0.7600
 6863SOL    HW222040   4.337   0.364   0.211 -0.4991  0.8505 -0.6214
 6864SOL     OW22041   2.755   5.918   2.712 -0.6312 -0.2633  0.0521
 6864SOL    HW122042   2.669   5.910   2.753 -0.9950 -0.9075 -0.8128
 6864SOL    HW222043   2.741   5.976   2.638  0.0614  1.0375  0.9049
 6865SOL     OW22044   1.965   2.513   6.095 -0.5996 -0.0467 -0.0896
 6865SOL    HW122045   2.008   2.437   6.132 -0.4814 -0.6263 -1.3784
 6865SOL    HW222046   1.972   2.502   6.000 -0.8516  1.4091 -0.3107
 6866SOL     OW22047   1.836   0.572   0.602 -0.1838 -0.1186  0.5177
 6866SOL    HW122048   1.791   0.588   0.685  0.6366 -1.0595  1.1748
 6866SOL    HW222049   1.895   0.647   0.592  0.7982 -0.7168  1.5704
 6867SOL     OW22050   5.889   3.337   3.442 -0.0747 -0.1270  0.2240
 6867SOL    HW122051   5.833   3.384   3.504 -1.0934  0.4345 -1.0743
 6867SOL    HW222052   5.940   3.277   3.497 -1.6674 -0.3955  1.5030
 6868SOL     OW22053   4.573   2.802   2.410  0.3691 -0.2973  0.1273
 6868SOL    HW122054   4.618   2.794   2.494 -0.4272 -1.0728  0.4939
 6868SOL    HW222055   4.550   2.894   2.404  1.8139  0.0835  0.0190
 6869SOL     OW22056   5.557   3.518   4.091  0.3579  0.0289  0.0209
 6869SOL    HW122057   5.491   3.460   4.051  1.2774 -0.4202 -0.8902
 6869SOL    HW222058   5.508   3.567   4.157 -0.9954  0.0276 -0.9347
 6870SOL     OW22059   5.129   3.750   1.635  0.2887 -0.2027 -0.0664
 6870SOL    HW122060   5.221   3.725   1.636  0.0336 -1.2474  1.3979
 6870SOL    HW222061   5.099   3.730   1.546  1.4850  0.2597 -0.5923
 6871SOL     OW22062   5.385   2.638   2.548  0.4066 -0.5011 -0.6686
 6871SOL    HW122063   5.392   2.713   2.607  2.7517 -0.0847 -1.3769
 6871SOL    HW222064   5.385   2.677   2.460  2.2508 -1.2830 -1.0691
 6872SOL     OW22065   0.664   2.411   5.762 -0.7005  0.1307 -0.6948
 6872SOL    HW122066   0.595   2.385   5.823 -1.9891  3.0097 -0.7577
 6872SOL    HW222067   0.741   2.425   5.817 -0.7123 -1.1059 -0.3317
 6873SOL     OW22068   6.846   5.060   4.753  0.2042 -0.4227  0.4255
 6873SOL    HW122069   6.864   4.966   4.758 -0.8853 -0.6062  1.0969
 6873SOL    HW222070   6.891   5.098   4.829 -1.6290 -0.8008  1.7580
 6874SOL     OW22071   5.327   5.704   4.792 -0.0278 -0.3594  0.9104
 6874SOL    HW122072   5.324   5.610   4.773 -1.6289 -0.4547  1.4799
 6874SOL    HW222073   5.388   5.711   4.865  0.5537 -0.8814  0.4859
 6875SOL     OW22074   3.687   1.716   2.202  0.1143 -0.3307 -0.1245
 6875SOL    HW122075   3.646   1.783   2.256  2.1885  0.9126  0.0186
 6875SOL    HW222076   3.626   1.701   2.130 -1.4044  0.0269  1.0505
 6876SOL     OW22077   3.981   0.707   0.589 -0.0283 -0.2482  0.0877
 6876SOL    HW122078   3.977   0.616   0.558  1.2912  0.5435 -2.6512
 6876SOL    HW222079   3.895   0.743   0.567 -0.5456 -0.7507  1.1536
 6877SOL     OW22080   6.031   0.983   3.137  0.0527  0.0232 -0.8013
 6877SOL    HW122081   6.094   1.052   3.117  1.4062 -1.1520 -0.7625
 6877SOL    HW222082   5.995   1.007   3.222  0.5326  0.6698 -0.7743
 6878SOL     OW22083   1.000   2.831   2.772  0.0659 -0.2251  0.3375
 6878SOL    HW122084   0.990   2.910   2.719 -0.8916  1.2267  2.5540
 6878SOL    HW222085   0.971   2.760   2.715 -0.9510  1.2644 -1.0732
 6879SOL     OW22086   6.899   6.457   4.792  0.2412 -0.1941  0.5320
 6879SOL    HW122087   6.922   6.381   4.738  0.9973  0.3127  0.1252
 6879SOL    HW222088   6.851   6.420   4.866  1.8487 -1.2335  1.1066
 6880SOL     OW22089   6.100   4.713   5.820 -0.0434  0.0339 -0.1809
 6880SOL    HW122090   6.179   4.686   5.773  0.5944  2.4799 -0.6408
 6880SOL    HW222091   6.031   4.711   5.754 -0.0611 -0.6168 -0.1514
 6881SOL     OW22092   2.639   0.331   5.503 -0.2451 -0.0934  0.2166
 6881SOL    HW122093   2.610   0.415   5.540 -1.2301  0.5224 -1.7726
 6881SOL    HW222094   2.574   0.311   5.436  2.1568 -0.3225 -2.2150
 6882SOL     OW22095   3.311   3.136   4.327  0.0719  0.6436  0.1184
 6882SOL    HW122096   3.301   3.163   4.419 -1.0465  1.0701 -0.1140
 6882SOL    HW222097   3.238   3.178   4.282  0.7919  0.6977 -1.0351
 6883SOL     OW22098   2.211   5.406   3.574 -0.1697  0.0981 -0.1949
 6883SOL    HW122099   2.272   5.472   3.608  0.0762  0.3216 -1.0459
 6883SOL    HW222100   2.147   5.395   3.644  0.1009  0.8348  0.1842
 6884SOL     OW22101   4.192   0.500   2.362  0.4405 -0.3030 -0.0957
 6884SOL    HW122102   4.121   0.446   2.328  0.5148 -1.7233  1.8701
 6884SOL    HW222103   4.171   0.589   2.331 -2.4040 -0.5805  0.7048
 6885SOL     OW22104   7.134   0.629   5.986  0.2535 -0.4357  0.1327
 6885SOL    HW122105   7.038   0.629   5.986  0.1935 -0.7643 -2.5852
 6885SOL    HW222106   7.158   0.719   5.966  0.4993 -0.4635  0.3034
 6886SOL     OW22107   2.858   2.508   0.867 -0.0383 -0.8147  0.4981
 6886SOL    HW122108   2.894   2.550   0.789 -0.8889 -0.7246  0.1496
 6886SOL    HW222109   2.782   2.459   0.836  1.2222 -3.1097  0.7875
 6887SOL     OW22110   4.545   0.025   2.828 -0.1140  0.1932 -0.0060
 6887SOL    HW122111   4.590  -0.016   2.902 -0.8048  0.2848  0.4737
 6887SOL    HW222112   4.551   0.119   2.846 -3.3691  0.1935  1.8787
 6888SOL     OW22113   3.932   6.652   1.468 -0.2445  0.5817  0.1632
 6888SOL    HW122114   4.000   6.586   1.484  0.8705  1.5535 -0.4079
 6888SOL    HW222115   3.856   6.620   1.518 -0.1521 -1.7351 -1.0262
 6889SOL     OW22116   1.753   0.589   4.878 -0.2433 -0.1125  0.1160
 6889SOL    HW122117   1.703   0.556   4.953  0.0672  0.4840  0.5971
 6889SOL    HW222118   1.810   0.516   4.854  0.7964  0.2010  1.4867
 6890SOL     OW22119   1.186   5.861   6.314 -0.7858  0.0604  0.1610
 6890SOL    HW122120   1.206   5.807   6.391  1.3578 -0.5473 -0.7492
 6890SOL    HW222121   1.270   5.902   6.292 -1.5592  0.8967 -1.3594
 6891SOL     OW22122   4.991   2.368   5.789 -0.4005 -0.2822 -0.1366
 6891SOL    HW122123   5.070   2.404   5.829 -1.7348 -0.0798  2.5384
 6891SOL    HW222124   4.988   2.408   5.702  2.7066 -0.7875 -0.5942
 6892SOL     OW22125   4.259   4.085   4.739 -0.2985  0.2690 -0.1998
 6892SOL    HW122126   4.303   4.138   4.805  1.4007 -2.0135  0.6418
 6892SOL    HW222127   4.173   4.067   4.775 -0.6187  1.7880 -0.1686
 6893SOL     OW22128   6.526   0.139   3.236 -0.2592 -0.1846  0.0955
 6893SOL    HW122129   6.567   0.212   3.189  0.7196 -0.5924  0.2758
 6893SOL    HW222130   6.460   0.180   3.291 -0.6177  0.4242 -0.7555
 6894SOL     OW22131   0.305   0.638   2.424 -0.3084  0.4507  0.4607
 6894SOL    HW122132   0.384   0.662   2.473  0.7274 -0.8117 -0.5403
 6894SOL    HW222133   0.289   0.547   2.448 -1.4079  0.6522  0.5431
 6895SOL     OW22134   6.346   6.518   6.156  0.1946 -0.1735 -0.2080
 6895SOL    HW122135   6.436   6.517   6.124  0.3559 -0.2525  0.2361
 6895SOL    HW222136   6.345   6.587   6.222 -0.0021 -0.3587 -0.0159
 6896SOL     OW22137   5.693   4.916   4.683  0.6257  0.2973 -0.1235
 6896SOL    HW122138   5.717   4.951   4.597  0.7642 -0.6322 -0.4688
 6896SOL    HW222139   5.615   4.966   4.707  1.0177  1.0845 -0.4479
 6897SOL     OW22140   0.912   6.212   6.248 -0.5678 -0.6705 -0.3769
 6897SOL    HW122141   0.957   6.243   6.326 -1.9700  0.6207 -0.0406
 6897SOL    HW222142   0.956   6.130   6.226  1.8026  0.4182  0.0178
 6898SOL     OW22143   1.135   2.388   4.223 -0.5853  0.1355 -0.3042
 6898SOL    HW122144   1.119   2.481   4.208  1.9172  0.6795  0.0284
 6898SOL    HW222145   1.129   2.348   4.136  3.4211  1.5556 -1.4729
 6899SOL     OW22146   0.308   0.683   2.893 -0.5566 -0.3339 -0.0330
 6899SOL    HW122147   0.398   0.703   2.920  0.1467 -0.8703 -1.8211
 6899SOL    HW222148   0.271   0.768   2.871  0.5712 -0.3275 -2.2101
 6900SOL     OW22149   3.046   4.333   4.150  0.3448  0.7609  0.2349
 6900SOL    HW122150   3.004   4.354   4.067  0.9777  1.6916  0.1349
 6900SOL    HW222151   3.126   4.386   4.150  1.4902 -0.8993  0.4503
 6901SOL     OW22152   3.843   3.913   6.080 -0.0465  0.4753  0.0486
 6901SOL    HW122153   3.787   3.835   6.082  0.5523 -0.0078 -1.0179
 6901SOL    HW222154   3.839   3.948   6.169 -2.5246  0.8112 -0.1158
 6902SOL     OW22155   3.003   2.951   6.500 -0.1382 -0.5267 -0.3529
 6902SOL    HW122156   2.930   2.937   6.439 -0.3490 -0.7683 -0.0495
 6902SOL    HW222157   2.962   2.996   6.574  0.0043 -0.7398 -0.1447
 6903SOL     OW22158   4.864   0.030   1.010 -0.5414 -0.0769  0.0085
 6903SOL    HW122159   4.945   0.006   1.054 -0.1781  2.4680  0.8838
 6903SOL    HW222160   4.866  -0.021   0.929  0.9125 -1.5878  0.9175
 6904SOL     OW22161   0.126   2.736   0.413 -0.5172  0.0160  0.7513
 6904SOL    HW122162   0.190   2.667   0.426 -0.4921 -0.1274 -0.0710
 6904SOL    HW222163   0.041   2.693   0.427 -0.5325 -0.3446 -0.3492
 6905SOL     OW22164   4.771   3.364   4.767  0.1246 -0.0100  0.0972
 6905SOL    HW122165   4.716   3.442   4.773  2.5150  1.9014 -1.0627
 6905SOL    HW222166   4.793   3.344   4.859 -1.2468  0.1198  0.4655
 6906SOL     OW22167   0.805   6.211   3.062  0.7368  0.6529 -0.1196
 6906SOL    HW122168   0.788   6.287   3.005  1.2299  1.9991  1.4369
 6906SOL    HW222169   0.889   6.231   3.103  0.2285 -0.1003  1.3203
 6907SOL     OW22170   2.873   1.372   5.334 -0.0609 -0.6891 -0.0495
 6907SOL    HW122171   2.923   1.407   5.408 -1.6188 -0.7809  1.0985
 6907SOL    HW222172   2.805   1.436   5.318  0.2450 -0.6852 -1.4274
 6908SOL     OW22173   3.668   6.555   6.631  0.4536 -0.4880  0.1742
 6908SOL    HW122174   3.673   6.616   6.557  0.7941 -0.0470  0.5517
 6908SOL    HW222175   3.757   6.525   6.643  0.3787 -0.6436  0.3406
 6909SOL     OW22176   2.979   1.976   4.802 -0.1498 -0.2610  0.4845
 6909SOL    HW122177   2.907   2.035   4.823 -1.1874 -0.9080 -1.0516
 6909SOL    HW222178   2.936   1.892   4.784  1.1543 -1.0941  1.1754
 6910SOL     OW22179   0.598   4.175   4.650 -0.4516  0.6198  0.3850
 6910SOL    HW122180   0.646   4.120   4.712  0.2408  1.2191  0.3873
 6910SOL    HW222181   0.597   4.124   4.569  1.7950  1.3347 -0.1612
 6911SOL     OW22182   2.218   5.648   0.009 -0.2121 -0.8994 -0.0430
 6911SOL    HW122183   2.167   5.635  -0.071 -1.5138 -1.1639  0.8205
 6911SOL    HW222184   2.183   5.585   0.071  0.8311 -0.7375  0.7365
 6912SOL     OW22185   3.808   3.530   1.895 -0.2122  0.0336  0.5387
 6912SOL    HW122186   3.746   3.472   1.852 -1.2035  2.1672 -1.0944
 6912SOL    HW222187   3.860   3.472   1.951 -3.9966 -1.8429  2.5252
 6913SOL     OW22188   5.647   3.507   6.672  0.0056  0.2572  0.4553
 6913SOL    HW122189   5.707   3.455   6.726 -0.5235 -1.6285 -0.6760
 6913SOL    HW222190   5.560   3.479   6.700 -0.3361  1.3720  0.5678
 6914SOL     OW22191   1.029   1.396   5.737 -0.2672  0.0314 -0.4459
 6914SOL    HW122192   0.978   1.471   5.766 -1.3741 -1.0447  0.5125
 6914SOL    HW222193   1.113   1.405   5.781 -0.5260  0.5048 -0.0403
 6915SOL     OW22194   5.205   5.392   3.908 -0.1610  0.0265 -0.2811
 6915SOL    HW122195   5.213   5.486   3.893 -1.6987  0.4272  1.1455
 6915SOL    HW222196   5.111   5.377   3.921  0.2189 -1.3768  1.2886
 6916SOL     OW22197   6.882   5.292   7.115  0.1071 -0.8805 -0.0941
 6916SOL    HW122198   6.924   5.224   7.169  0.5419 -0.9178 -0.4713
 6916SOL    HW222199   6.938   5.298   7.038  0.1962  0.0677  0.0358
 6917SOL     OW22200   1.489   5.489   1.204 -0.5986  0.4714  0.1991
 6917SOL    HW122201   1.531   5.404   1.212  0.6849  1.0471 -0.1477
 6917SOL    HW222202   1.412   5.473   1.150 -1.9507 -0.9626  2.3761
 6918SOL     OW22203   5.561   1.933   5.490 -0.0621 -0.2650  0.1098
 6918SOL    HW122204   5.630   1.934   5.424 -1.8684  1.7361 -1.9135
 6918SOL    HW222205   5.528   2.023   5.492 -2.9538 -1.2105  0.5722
 6919SOL     OW22206   1.636   6.351   1.261 -0.0628 -0.6150  0.2532
 6919SOL    HW122207   1.616   6.409   1.188 -0.0153  0.3566  0.9886
 6919SOL    HW222208   1.717   6.386   1.298 -1.5555  0.7563  2.5342
 6920SOL     OW22209   3.720   3.090   6.166 -0.4773 -0.5711 -0.0930
 6920SOL    HW122210   3.727   3.119   6.257 -0.5574 -3.3876  0.9064
 6920SOL    HW222211   3.811   3.076   6.138 -0.5401 -3.0910  0.8080
 6921SOL     OW22212   4.410   3.602   7.004 -0.4437 -0.4793 -0.8749
 6921SOL    HW122213   4.479   3.574   6.944 -0.9296  2.1644 -2.8391
 6921SOL    HW222214   4.332   3.608   6.949 -0.7960  2.5837 -0.2334
 6922SOL     OW22215   4.151   3.541   3.045 -0.4776  0.2246 -0.3254
 6922SOL    HW122216   4.168   3.501   2.960  0.9768  0.7760 -0.3246
 6922SOL    HW222217   4.113   3.626   3.025 -0.9436 -0.0002 -0.3989
 6923SOL     OW22218   3.821   5.405   5.393 -0.0525 -0.3329 -0.1264
 6923SOL    HW122219   3.808   5.310   5.389  0.7505 -0.4839  0.4530
 6923SOL    HW222220   3.734   5.442   5.379 -0.5697 -1.1847  0.6888
 6924SOL     OW22221   3.587   4.392   2.966 -0.5329  0.2489 -0.8250
 6924SOL    HW122222   3.646   4.392   3.041  0.0042 -0.0965 -1.2366
 6924SOL    HW222223   3.500   4.397   3.004 -0.2241  1.5617 -0.2297
 6925SOL     OW22224   4.631   6.217   3.490 -0.4228 -0.1082  0.1620
 6925SOL    HW122225   4.592   6.139   3.450 -0.5079 -0.4373  0.8717
 6925SOL    HW222226   4.557   6.277   3.502 -0.5438 -0.3510  0.6229
 6926SOL     OW22227   5.555   1.598   4.521  0.4900 -0.1916  0.1148
 6926SOL    HW122228   5.629   1.629   4.469  0.7426  0.4420  0.8415
 6926SOL    HW222229   5.590   1.588   4.610 -0.6421  1.5209  0.7912
 6927SOL     OW22230   1.795   2.089   2.890  0.0371 -0.1314 -1.0135
 6927SOL    HW122231   1.841   2.066   2.809  1.7113  0.4680 -0.2684
 6927SOL    HW222232   1.854   2.063   2.960 -1.5040 -0.8908  0.0588
 6928SOL     OW22233   3.564   5.934   0.208  0.2726 -0.1266  0.0835
 6928SOL    HW122234   3.469   5.929   0.207  0.2103  0.8359 -0.9483
 6928SOL    HW222235   3.592   5.843   0.196 -0.5192 -0.4035  0.2781
 6929SOL     OW22236   6.676   1.895   2.159  0.6590 -0.6873 -0.1984
 6929SOL    HW122237   6.676   1.832   2.087 -0.6400 -1.6988  0.6309
 6929SOL    HW222238   6.598   1.872   2.211  0.9920  0.6524  0.9635
 6930SOL     OW22239   0.114   6.373   4.557 -0.4539  0.2169  0.2633
 6930SOL    HW122240   0.172   6.377   4.482 -0.7232  0.7296  0.0771
 6930SOL    HW222241   0.032   6.411   4.526 -0.2332  1.4624  1.1280
 6931SOL     OW22242   3.245   6.070   5.534 -0.6148  0.5619 -0.4166
 6931SOL    HW122243   3.187   6.069   5.610 -0.4899  0.8948 -0.3167
 6931SOL    HW222244   3.205   6.009   5.472  0.4016 -1.4716  0.7738
 6932SOL     OW22245   4.216   4.792   1.140 -0.2423  0.8790 -0.1028
 6932SOL    HW122246   4.298   4.790   1.090 -0.6013  0.2584 -0.6734
 6932SOL    HW222247   4.160   4.853   1.092 -1.1028 -0.8001 -1.2929
 6933SOL     OW22248   5.175   1.014   0.652  0.3170  0.0982 -1.0853
 6933SOL    HW122249   5.098   1.012   0.595  0.5224 -0.7499 -1.3424
 6933SOL    HW222250   5.219   0.930   0.637  0.2158 -0.2850  0.5642
 6934SOL     OW22251   2.525   1.155   5.021 -0.0600 -0.1956  0.0380
 6934SOL    HW122252   2.518   1.243   4.985  0.2944 -0.9333 -2.0158
 6934SOL    HW222253   2.535   1.167   5.115  0.1622  1.9491 -0.2220
 6935SOL     OW22254   0.204   3.458   6.071  0.1457  0.7973 -0.3516
 6935SOL    HW122255   0.204   3.367   6.103 -0.3426  0.2760 -1.7928
 6935SOL    HW222256   0.294   3.474   6.044  0.1462  0.6086 -0.4607
 6936SOL     OW22257   4.320   7.084   6.561 -0.0600 -0.3868 -0.3180
 6936SOL    HW122258   4.397   7.139   6.546 -0.3764  0.4247  0.9121
 6936SOL    HW222259   4.246   7.135   6.527 -0.9455  1.9596  4.3198
 6937SOL     OW22260   4.336   1.732   3.422  0.0107 -0.1494 -0.0153
 6937SOL    HW122261   4.244   1.727   3.448 -0.5831  1.0981 -1.6656
 6937SOL    HW222262   4.384   1.693   3.494 -1.7897 -0.4233  1.0860
 6938SOL     OW22263   0.365   3.935   0.181  0.2939 -0.5961  0.1081
 6938SOL    HW122264   0.346   3.859   0.126  1.2039 -0.2341 -0.7328
 6938SOL    HW222265   0.411   3.996   0.123  0.3723  0.2280  1.0039
 6939SOL     OW22266   4.940   3.220   1.172 -0.2860  0.1004  0.1272
 6939SOL    HW122267   5.011   3.166   1.208 -0.3688 -0.0793  0.0241
 6939SOL    HW222268   4.973   3.248   1.086  0.8658  2.4091  1.2417
 6940SOL     OW22269   6.374   6.822   6.178 -0.4971  0.2111 -0.2957
 6940SOL    HW122270   6.421   6.894   6.220 -0.2905 -0.1234  0.0537
 6940SOL    HW222271   6.387   6.836   6.084  0.2512  0.1571 -0.2067
 6941SOL     OW22272   3.588   2.774   4.325  0.7505 -0.0090 -0.2463
 6941SOL    HW122273   3.644   2.697   4.321 -0.0418 -0.5572 -1.3147
 6941SOL    HW222274   3.511   2.745   4.374  1.9843  1.1890  2.6886
 6942SOL     OW22275   0.730   2.287   0.130  0.3958 -0.5007 -0.4850
 6942SOL    HW122276   0.752   2.237   0.209 -0.7354  1.1113  0.9325
 6942SOL    HW222277   0.643   2.255   0.105  1.4395 -2.2231 -2.1760
 6943SOL     OW22278   5.154   2.842   3.552 -0.4554 -0.3229 -0.2046
 6943SOL    HW122279   5.141   2.927   3.510 -0.4937 -0.9932 -1.6157
 6943SOL    HW222280   5.249   2.828   3.548 -0.2246  0.4290  1.6723
 6944SOL     OW22281   4.030   2.286   0.290 -0.4921 -0.0547 -0.1336
 6944SOL    HW122282   3.947   2.331   0.303  0.0126  0.7000  0.4860
 6944SOL    HW222283   4.075   2.337   0.223 -0.0412  0.2118  0.3653
 6945SOL     OW22284   2.396   1.675   6.254  0.2487  0.1851 -0.7433
 6945SOL    HW122285   2.483   1.712   6.239  0.8641 -0.5662  0.7529
 6945SOL    HW222286   2.341   1.750   6.277  1.0853  0.4061  0.6438
 6946SOL     OW22287   4.528   5.296   5.741  0.1166  0.0413  0.1273
 6946SOL    HW122288   4.530   5.302   5.646 -0.4098 -1.7762 -0.0329
 6946SOL    HW222289   4.497   5.382   5.770  1.5933  1.1039 -1.2415
 6947SOL     OW22290   2.464   4.675   1.092  0.1207  0.1812  0.3976
 6947SOL    HW122291   2.449   4.581   1.093 -0.9650  0.3438  0.8471
 6947SOL    HW222292   2.525   4.691   1.164 -1.8117  0.1101  2.1569
 6948SOL     OW22293   1.198   1.635   1.177 -0.6668  0.5931 -0.3925
 6948SOL    HW122294   1.162   1.721   1.201  1.0980  1.2610  0.0700
 6948SOL    HW222295   1.138   1.572   1.217 -1.1196  1.6465  0.6616
 6949SOL     OW22296   2.232   0.891   2.988 -0.8219  0.4627 -0.3599
 6949SOL    HW122297   2.265   0.802   3.002 -1.5526  0.2697  0.2102
 6949SOL    HW222298   2.188   0.913   3.070 -0.0544  1.6222 -0.2327
 6950SOL     OW22299   5.492   1.999   6.209  0.2114 -0.3228 -0.3469
 6950SOL    HW122300   5.407   2.033   6.181 -0.9828 -3.4234 -0.8031
 6950SOL    HW222301   5.520   2.059   6.279 -1.9286  1.2195 -0.7067
 6951SOL     OW22302   1.182   5.635   5.910  0.1082  0.5955 -0.3150
 6951SOL    HW122303   1.193   5.588   5.827  0.4333  0.2356 -0.0729
 6951SOL    HW222304   1.089   5.629   5.930  0.0112  0.7741 -0.7040
 6952SOL     OW22305   4.365   2.930   1.550  0.3615 -0.2635  0.1100
 6952SOL    HW122306   4.400   2.896   1.633  0.0788  0.7906  0.6855
 6952SOL    HW222307   4.375   3.025   1.557 -1.2473 -0.0219 -0.3062
 6953SOL     OW22308   1.859   7.030   6.691  0.2788 -0.5054  0.1413
 6953SOL    HW122309   1.820   7.105   6.737 -0.9959 -0.5957 -0.7318
 6953SOL    HW222310   1.904   7.069   6.616 -2.3692 -0.6632 -1.6927
 6954SOL     OW22311   6.358   2.891   1.009 -0.2699  0.2272 -0.6788
 6954SOL    HW122312   6.374   2.805   1.046  1.1163 -0.2827 -2.3339
 6954SOL    HW222313   6.280   2.881   0.956 -1.2643  0.5338  0.6658
 6955SOL     OW22314   2.315   2.848   1.140 -0.3036 -0.5049 -0.1794
 6955SOL    HW122315   2.245   2.799   1.183 -0.9407 -0.5317 -1.2271
 6955SOL    HW222316   2.383   2.783   1.121 -1.4910 -1.2101 -2.3163
 6956SOL     OW22317   2.236   2.728   0.208 -0.0708  0.1931 -0.2596
 6956SOL    HW122318   2.222   2.782   0.286 -1.9209 -0.7052  0.0907
 6956SOL    HW222319   2.291   2.656   0.238 -0.7082 -0.1042  0.2273
 6957SOL     OW22320   6.217   1.868   0.476  0.0043 -0.2504  0.2222
 6957SOL    HW122321   6.227   1.959   0.446 -1.0465  0.3750  1.6502
 6957SOL    HW222322   6.187   1.821   0.398 -1.0552  0.9766 -0.1551
 6958SOL     OW22323   3.897   4.811   5.459 -0.0796  0.0393  0.5543
 6958SOL    HW122324   3.851   4.792   5.541  0.2651  2.2783  1.3470
 6958SOL    HW222325   3.981   4.848   5.487  0.1613  0.5634 -0.8083
 6959SOL     OW22326   3.098   3.117   5.404  0.2698 -0.1130 -0.0874
 6959SOL    HW122327   3.033   3.049   5.388 -0.8679  0.9511 -0.0975
 6959SOL    HW222328   3.076   3.186   5.343  1.0873  0.4989  0.2888
 6960SOL     OW22329   6.838   5.326   5.683 -0.0637 -0.0559  0.4689
 6960SOL    HW122330   6.871   5.264   5.748 -1.8391 -0.9333  0.5852
 6960SOL    HW222331   6.906   5.393   5.678  0.4740 -0.3444  2.7048
 6961SOL     OW22332   5.765   4.391   2.075  0.1612  0.1532  0.3714
 6961SOL    HW122333   5.794   4.425   1.990 -0.0988 -0.7662 -0.1027
 6961SOL    HW222334   5.725   4.467   2.119 -0.1746  0.5277 -0.5461
 6962SOL     OW22335   3.379   5.195   0.098  0.2144 -0.0699 -0.1083
 6962SOL    HW122336   3.371   5.201   0.002 -0.7787  0.3325 -0.0137
 6962SOL    HW222337   3.447   5.129   0.112 -0.8571 -1.4324 -1.0791
 6963SOL     OW22338   4.057   5.383   2.679  0.0112 -0.0369  0.0567
 6963SOL    HW122339   4.072   5.477   2.678  0.4796 -0.0882 -1.9080
 6963SOL    HW222340   4.026   5.364   2.768  1.4393  1.7055  0.9817
 6964SOL     OW22341   0.450   5.255   2.517 -0.1948 -0.0932  0.0148
 6964SOL    HW122342   0.475   5.335   2.563 -1.3959  1.3421 -1.6925
 6964SOL    HW222343   0.525   5.197   2.526  1.2631  1.7394  0.1356
 6965SOL     OW22344   4.723   3.537   3.786  0.0028 -0.3775 -0.2564
 6965SOL    HW122345   4.788   3.513   3.853 -0.5215 -0.5088  0.2137
 6965SOL    HW222346   4.771   3.531   3.704  2.0462  4.2934  0.3208
 6966SOL     OW22347   3.413   5.342   3.080  0.4084 -0.1842  0.5848
 6966SOL    HW122348   3.429   5.401   3.154  0.8944 -0.0450  0.3743
 6966SOL    HW222349   3.493   5.289   3.074 -0.0007 -0.8213  0.7318
 6967SOL     OW22350   6.494   5.722   1.973  0.0445  0.0851 -0.2390
 6967SOL    HW122351   6.492   5.627   1.969  1.4968 -0.0921  1.9130
 6967SOL    HW222352   6.562   5.748   1.911  0.9394 -0.4158  0.5225
 6968SOL     OW22353   4.764   3.387   2.987 -0.1774  0.5235  0.1447
 6968SOL    HW122354   4.724   3.472   2.968  1.2418  0.8622 -1.5994
 6968SOL    HW222355   4.698   3.323   2.960 -0.4540  1.0757 -0.5302
 6969SOL     OW22356   6.005   6.824   4.174  0.3828 -0.4407  0.0919
 6969SOL    HW122357   5.958   6.812   4.256  0.6184  0.5686  0.3961
 6969SOL    HW222358   5.952   6.779   4.108 -0.3673 -0.3453  0.6196
 6970SOL     OW22359   2.992   3.776   7.019  0.1026 -0.1066 -0.3584
 6970SOL    HW122360   2.930   3.720   7.067  1.3571 -1.3683 -0.1418
 6970SOL    HW222361   3.056   3.715   6.983  1.0731  1.1379 -0.8024
 6971SOL     OW22362   5.569   1.709   3.467 -0.2748 -0.2180 -0.2891
 6971SOL    HW122363   5.575   1.728   3.373 -1.3036 -1.7751 -0.7146
 6971SOL    HW222364   5.499   1.767   3.498  1.9009  2.3491  0.1826
 6972SOL     OW22365   0.261   1.113   1.616  0.1009  0.5140 -0.7282
 6972SOL    HW122366   0.306   1.050   1.673  0.5887  1.7003  0.2318
 6972SOL    HW222367   0.325   1.135   1.549  0.2578  0.7155 -0.5102
 6973SOL     OW22368   5.483   6.247   3.581  0.0082  0.5619 -0.0412
 6973SOL    HW122369   5.530   6.264   3.662  1.4723  1.6584 -1.0617
 6973SOL    HW222370   5.393   6.231   3.608  0.9508 -1.8475  2.0094
 6974SOL     OW22371   4.835   5.445   3.852  0.9308  0.0276  0.0849
 6974SOL    HW122372   4.767   5.469   3.915  1.7718  0.6576  0.7757
 6974SOL    HW222373   4.789   5.439   3.768 -0.4853 -2.1661  0.9173
 6975SOL     OW22374   2.802   4.794   1.532  0.2204  0.8465  0.1891
 6975SOL    HW122375   2.804   4.844   1.450 -0.5795  2.3007  1.0208
 6975SOL    HW222376   2.894   4.775   1.551  0.5262  1.7876 -0.2828
 6976SOL     OW22377   0.670   6.541   4.161  0.0105 -0.4220 -0.2312
 6976SOL    HW122378   0.747   6.568   4.210 -0.6971  1.1290  0.0878
 6976SOL    HW222379   0.695   6.551   4.069  0.8322 -1.8784 -0.1941
 6977SOL     OW22380   5.644   4.985   6.382 -0.4018 -0.4787 -0.5647
 6977SOL    HW122381   5.740   4.983   6.390 -0.2135 -1.1660 -2.5343
 6977SOL    HW222382   5.624   4.918   6.316 -2.2473 -0.2680 -0.2722
 6978SOL     OW22383   1.829   4.404   1.858 -0.2229  0.0423 -0.0529
 6978SOL    HW122384   1.778   4.341   1.806 -1.2665 -0.8711  1.9714
 6978SOL    HW222385   1.918   4.370   1.855 -0.8027 -1.7715  1.1961
 6979SOL     OW22386   7.115   2.645   5.030 -0.1585 -0.5783  0.1604
 6979SOL    HW122387   7.036   2.698   5.036  1.4935  2.3877 -1.8905
 6979SOL    HW222388   7.122   2.602   5.116 -2.7510  0.8452  1.1735
 6980SOL     OW22389   6.470   2.219   4.270 -0.1609  0.2073  0.4146
 6980SOL    HW122390   6.439   2.269   4.346  0.7564  0.8907  0.3651
 6980SOL    HW222391   6.404   2.234   4.203 -0.1587  0.9630  0.5643
 6981SOL     OW22392   4.647   3.023   5.200 -0.1327  0.3450  0.4323
 6981SOL    HW122393   4.567   2.995   5.244 -0.2146 -0.0721  0.0321
 6981SOL    HW222394   4.670   3.106   5.240 -0.8244  0.5138  0.4799
 6982SOL     OW22395   0.560   4.833   7.065  0.1039  0.2101  0.2292
 6982SOL    HW122396   0.494   4.890   7.024 -2.1041 -1.4285  1.3139
 6982SOL    HW222397   0.558   4.753   7.012  1.2019  0.1093  0.3276
 6983SOL     OW22398   0.578   2.787   2.058  0.3244  0.0058  0.2660
 6983SOL    HW122399   0.510   2.832   2.007 -0.5401 -0.5847  0.8675
 6983SOL    HW222400   0.601   2.710   2.005  0.5508  0.2217  0.0484
 6984SOL     OW22401   1.906   2.581   4.769 -0.6655 -0.1784  0.0745
 6984SOL    HW122402   1.914   2.573   4.864 -1.4287  0.1760  0.1775
 6984SOL    HW222403   1.993   2.605   4.739  0.2801 -2.8626  0.3819
 6985SOL     OW22404   4.944   2.804   6.276 -0.2514  0.0605 -0.5450
 6985SOL    HW122405   4.899   2.741   6.220 -1.1572  0.2884 -0.0979
 6985SOL    HW222406   5.012   2.753   6.321 -0.9405 -0.5920 -0.2265
 6986SOL     OW22407   5.879   2.268   5.263  0.2454  0.6445  0.1934
 6986SOL    HW122408   5.925   2.323   5.199  2.8193 -1.2917  0.2088
 6986SOL    HW222409   5.933   2.274   5.342  0.7383 -1.9850  0.1241
 6987SOL     OW22410   1.226   1.698   4.852 -0.0967  0.2156  0.5936
 6987SOL    HW122411   1.261   1.632   4.911 -1.7333 -1.1382  0.1471
 6987SOL    HW222412   1.218   1.653   4.767 -2.8168  0.3566  0.6610
 6988SOL     OW22413   1.274   4.887   4.278 -0.1558 -0.1798  0.6742
 6988SOL    HW122414   1.271   4.932   4.362 -0.4418 -1.0537  1.1425
 6988SOL    HW222415   1.183   4.862   4.261  0.0012 -0.6028  0.4347
 6989SOL     OW22416   3.687   1.293   5.134  0.6402 -0.5399 -0.5633
 6989SOL    HW122417   3.657   1.284   5.224  0.0775  0.2334 -0.6642
 6989SOL    HW222418   3.693   1.203   5.101 -0.9140 -0.7584 -0.3206
 6990SOL     OW22419   6.262   2.985   0.504 -0.0377 -0.2822 -0.2387
 6990SOL    HW122420   6.302   3.072   0.507  0.5354 -0.5370  2.4686
 6990SOL    HW222421   6.245   2.970   0.411  0.4613  2.4177 -0.8691
 6991SOL     OW22422   3.933   1.640   1.813 -0.3538 -0.1117  0.0774
 6991SOL    HW122423   3.841   1.648   1.837  0.1598  0.4170  2.1058
 6991SOL    HW222424   3.943   1.691   1.733 -2.5907 -3.5123 -2.6577
 6992SOL     OW22425   0.280   0.454   2.760  0.3293  0.6686  0.3197
 6992SOL    HW122426   0.297   0.417   2.846  1.2598 -0.1985 -0.2112
 6992SOL    HW222427   0.294   0.548   2.770  2.5853  0.3400  0.6260
 6993SOL     OW22428   3.585   2.326   3.958  1.0480 -0.2440 -0.4660
 6993SOL    HW122429   3.526   2.298   3.889  0.0093  0.9038 -0.0621
 6993SOL    HW222430   3.530   2.373   4.020  2.1417 -0.3429  0.6249
 6994SOL     OW22431   2.176   0.516   6.064  0.5415 -0.0408  0.1659
 6994SOL    HW122432   2.176   0.441   6.122  0.2966  0.2248  0.5124
 6994SOL    HW222433   2.099   0.567   6.090  0.1136 -0.1974 -0.7490
 6995SOL     OW22434   5.464   4.304   5.433 -0.8336 -0.5508 -0.2207
 6995SOL    HW122435   5.528   4.264   5.374 -0.1236  0.7508 -0.3698
 6995SOL    HW222436   5.410   4.358   5.376 -1.8139 -1.2858 -0.0265
 6996SOL     OW22437   0.859   6.658   6.179  0.1400  0.0322  0.3988
 6996SOL    HW122438   0.929   6.712   6.215 -0.1953  0.2480  0.7325
 6996SOL    HW222439   0.803   6.719   6.132  0.7586 -0.2941 -0.8064
 6997SOL     OW22440   6.627   3.374   4.448  0.0101 -0.3268  0.6079
 6997SOL    HW122441   6.642   3.310   4.518 -3.4392 -1.0038  0.8828
 6997SOL    HW222442   6.595   3.452   4.493  0.8659  0.4054 -0.0184
 6998SOL     OW22443   6.421   1.038   6.008  0.3558  0.1926  0.2291
 6998SOL    HW122444   6.477   1.110   5.982 -0.6382  0.4982 -1.2488
 6998SOL    HW222445   6.350   1.079   6.058  1.1798 -0.1296  1.6948
 6999SOL     OW22446   5.278   4.122   5.085  0.0361 -0.3613  0.5174
 6999SOL    HW122447   5.275   4.112   5.180 -2.1093  0.8203  0.6400
 6999SOL    HW222448   5.344   4.190   5.070 -0.9593  0.8025  1.3286
 7000SOL     OW22449   2.204   3.540   1.877 -0.2984  0.1378 -0.5222
 7000SOL    HW122450   2.190   3.631   1.902  0.0941  0.2211 -0.6041
 7000SOL    HW222451   2.175   3.535   1.786  0.5826  0.4113 -0.8296
 7001SOL     OW22452   0.367   5.888   0.223 -0.2436 -0.6945  0.5162
 7001SOL    HW122453   0.312   5.947   0.274  1.5898  1.1487  0.5071
 7001SOL    HW222454   0.381   5.935   0.140 -0.8945 -2.3845 -0.5939
 7002SOL     OW22455   6.071   2.265   5.804  0.0577  0.0132 -0.4686
 7002SOL    HW122456   6.020   2.343   5.825 -1.1528 -0.8385 -0.1725
 7002SOL    HW222457   6.016   2.192   5.831  1.5988 -0.9440  0.2418
 7003SOL     OW22458   5.206   1.675   5.092  0.2667 -0.3523 -0.0644
 7003SOL    HW122459   5.249   1.604   5.044 -1.7880 -1.7252 -0.0299
 7003SOL    HW222460   5.185   1.636   5.177 -1.1316  0.1796 -0.1408
 7004SOL     OW22461   1.380   1.638   2.027  0.2067 -0.3255 -0.8445
 7004SOL    HW122462   1.310   1.661   1.965 -1.1676  0.5662  0.9449
 7004SOL    HW222463   1.429   1.720   2.039 -0.1873 -0.2085  0.0183
 7005SOL     OW22464   6.679   4.078   1.138  0.3929  0.1243  0.0343
 7005SOL    HW122465   6.712   4.020   1.206 -0.0160 -0.8295 -0.5718
 7005SOL    HW222466   6.751   4.139   1.122  1.0093 -0.5099  0.3351
 7006SOL     OW22467   1.217   4.026   2.399 -0.4567 -0.0325  0.4564
 7006SOL    HW122468   1.176   4.102   2.441  0.4918  0.2135  0.9728
 7006SOL    HW222469   1.229   3.963   2.471 -0.6081 -0.3958  0.1650
 7007SOL     OW22470   2.729   1.599   2.595 -0.0977 -0.2575  0.0713
 7007SOL    HW122471   2.771   1.679   2.562  0.2346 -0.0884  0.8687
 7007SOL    HW222472   2.637   1.624   2.606 -0.2474 -0.3602 -0.8284
 7008SOL     OW22473   4.305   2.481   6.245  0.5345 -0.6308  0.1564
 7008SOL    HW122474   4.262   2.492   6.160  0.8200 -1.3068 -0.0856
 7008SOL    HW222475   4.387   2.528   6.237 -0.9285  2.3838  1.2881
 7009SOL     OW22476   0.598   6.600   5.008  0.1356 -0.1484  0.0994
 7009SOL    HW122477   0.559   6.530   4.956  0.7209 -0.8958  0.6616
 7009SOL    HW222478   0.535   6.616   5.078  0.1369 -0.3155  0.1394
 7010SOL     OW22479   4.023   0.727   6.112  0.3532 -0.1804  0.1171
 7010SOL    HW122480   4.107   0.759   6.081  0.0578 -0.7743 -1.3639
 7010SOL    HW222481   3.958   0.788   6.077 -0.2098 -2.1874 -2.7145
 7011SOL     OW22482   0.175   1.351   1.453 -0.0456 -0.0954  0.3219
 7011SOL    HW122483   0.186   1.271   1.503  0.8429 -0.5107 -0.5062
 7011SOL    HW222484   0.084   1.350   1.426  0.2981 -1.6090 -0.9375
 7012SOL     OW22485   1.263   0.838   2.469 -0.1557 -0.0984  0.4947
 7012SOL    HW122486   1.321   0.913   2.458 -0.1820 -0.1731 -0.2252
 7012SOL    HW222487   1.194   0.853   2.404 -0.9478 -0.0047  1.3423
 7013SOL     OW22488   6.176   2.853   4.895 -0.0095  0.4872 -0.6775
 7013SOL    HW122489   6.084   2.869   4.873  0.3531  1.3587 -1.6127
 7013SOL    HW222490   6.174   2.829   4.988 -1.1252  1.0470 -0.5375
 7014SOL     OW22491   3.436   1.289   5.049  0.0269  0.2362  0.1184
 7014SOL    HW122492   3.528   1.311   5.063  0.4027 -0.1866 -1.4562
 7014SOL    HW222493   3.402   1.268   5.136  1.1898  1.1976  0.8380
 7015SOL     OW22494   6.275   5.225   6.269 -0.3568 -0.1459  0.1065
 7015SOL    HW122495   6.218   5.152   6.291 -0.8084  0.0366 -0.4481
 7015SOL    HW222496   6.305   5.258   6.354  1.0559 -1.8980  0.3447
 7016SOL     OW22497   5.972   4.161   2.647  0.3296  0.1472  0.4082
 7016SOL    HW122498   6.006   4.249   2.667  2.6190  0.0352 -2.3723
 7016SOL    HW222499   6.046   4.102   2.664 -0.0363 -0.7786 -1.0987
 7017SOL     OW22500   5.871   5.705   4.941 -0.6139 -0.0376  0.2223
 7017SOL    HW122501   5.826   5.686   4.859  1.5366 -1.1250 -0.7880
 7017SOL    HW222502   5.855   5.628   4.995 -1.9291  0.6265  0.8191
 7018SOL     OW22503   5.109   1.313   4.786  0.2313 -0.0694  0.6497
 7018SOL    HW122504   5.120   1.218   4.789  1.4806 -0.0305 -1.1062
 7018SOL    HW222505   5.022   1.328   4.822  0.0391 -1.8706  1.0316
 7019SOL     OW22506   4.673   3.408   2.099 -0.0378  0.5063  0.2617
 7019SOL    HW122507   4.763   3.429   2.072  0.0573  0.4897  0.5620
 7019SOL    HW222508   4.651   3.331   2.047  0.8726 -0.7447  1.6551
 7020SOL     OW22509   1.759   4.136   3.971  0.0749 -0.2537 -0.3052
 7020SOL    HW122510   1.676   4.149   3.927  0.0232 -1.1712 -0.4991
 7020SOL    HW222511   1.736   4.112   4.061  0.1223 -0.5435 -0.3684
 7021SOL     OW22512   6.481   6.289   6.250 -0.6090  0.1983  0.2118
 7021SOL    HW122513   6.433   6.368   6.225 -1.3364 -0.0831  0.6649
 7021SOL    HW222514   6.541   6.273   6.178 -1.3229  0.4715 -0.4580
 7022SOL     OW22515   1.075   3.193   4.039 -0.5297 -0.2935  0.0632
 7022SOL    HW122516   0.984   3.209   4.064 -0.8405  0.4508 -1.4433
 7022SOL    HW222517   1.112   3.280   4.027  0.4328 -0.5928  0.7705
 7023SOL     OW22518   6.678   6.633   4.235  0.1574  0.4786  0.2950
 7023SOL    HW122519   6.761   6.589   4.252  0.5281  1.3403  0.7680
 7023SOL    HW222520   6.611   6.566   4.252  0.7261 -0.0334  0.5343
 7024SOL     OW22521   5.744   0.069   3.214 -0.5708 -0.0174  0.2684
 7024SOL    HW122522   5.690   0.080   3.136 -0.5302 -1.3964  0.0341
 7024SOL    HW222523   5.765  -0.024   3.217  1.3053  0.3696  0.6847
 7025SOL     OW22524   5.306   5.378   6.977  0.7138 -0.1967  0.0918
 7025SOL    HW122525   5.327   5.337   6.893 -2.3393 -2.1975  0.1339
 7025SOL    HW222526   5.249   5.451   6.955  2.7437  1.5434  0.3028
 7026SOL     OW22527   4.212   3.979   6.769 -0.2437  0.1636  0.0667
 7026SOL    HW122528   4.123   3.952   6.743  0.1898 -2.7187  1.1798
 7026SOL    HW222529   4.255   3.897   6.794  2.3779  1.6331  0.7001
 7027SOL     OW22530   6.712   2.247   2.589  0.7296 -0.3876 -0.2599
 7027SOL    HW122531   6.653   2.250   2.664 -1.2582 -0.6688 -1.7154
 7027SOL    HW222532   6.800   2.241   2.627  0.2333  3.8023  2.1246
 7028SOL     OW22533   2.906   6.095   5.531 -0.0982 -0.3960  0.2617
 7028SOL    HW122534   2.947   6.041   5.599  1.5562  0.0120 -0.3779
 7028SOL    HW222535   2.918   6.185   5.561 -0.2831 -0.2547 -0.0798
 7029SOL     OW22536   3.575   2.084   7.059  0.0197 -0.5803  0.6249
 7029SOL    HW122537   3.650   2.043   7.016  0.5027  0.3613  0.5287
 7029SOL    HW222538   3.591   2.178   7.050 -1.8849 -0.3094 -0.6576
 7030SOL     OW22539   1.265   2.534   6.820  0.3415  0.2383  0.1686
 7030SOL    HW122540   1.185   2.553   6.869  0.7849 -1.5284  1.6674
 7030SOL    HW222541   1.335   2.542   6.884  1.1956  0.0108 -0.7152
 7031SOL     OW22542   1.918   3.616   3.181 -0.0308  0.1630 -0.1285
 7031SOL    HW122543   1.916   3.592   3.274  0.0407  0.5491 -0.0255
 7031SOL    HW222544   2.010   3.632   3.163 -0.1490  1.0007 -0.0251
 7032SOL     OW22545   4.154   6.054   0.982 -0.2113 -0.2600  0.2329
 7032SOL    HW122546   4.126   6.053   1.074  0.0687  0.6333  0.3381
 7032SOL    HW222547   4.134   6.142   0.952 -0.1396 -0.4960 -0.5223
 7033SOL     OW22548   5.440   3.213   5.772  0.1115 -0.4433 -0.5189
 7033SOL    HW122549   5.489   3.175   5.845  0.4725  0.4673 -0.2728
 7033SOL    HW222550   5.380   3.144   5.745 -0.0434 -0.7919  0.6559
 7034SOL     OW22551   3.295   4.494   2.279  0.1250 -0.2426 -0.2542
 7034SOL    HW122552   3.323   4.413   2.236 -1.7843 -0.8172 -0.4843
 7034SOL    HW222553   3.233   4.534   2.218 -1.1653 -0.1009  1.0931
 7035SOL     OW22554   0.109   4.174   0.436 -0.2818 -0.2189  0.0585
 7035SOL    HW122555   0.088   4.262   0.468  1.5132 -0.3590  1.8169
 7035SOL    HW222556   0.160   4.189   0.356  1.2334  0.4618  1.0980
 7036SOL     OW22557   7.066   7.064   1.548  0.0986  0.0967 -0.1918
 7036SOL    HW122558   7.069   7.095   1.458  1.0984 -0.9842 -0.5499
 7036SOL    HW222559   7.142   7.007   1.557 -0.1237 -0.0192  1.2659
 7037SOL     OW22560   2.648   3.484   5.770  0.1526 -0.2221 -0.5234
 7037SOL    HW122561   2.710   3.424   5.811 -2.2530 -0.4244  3.3519
 7037SOL    HW222562   2.586   3.427   5.726  0.1815 -0.3345 -0.4204
 7038SOL     OW22563   5.827   2.052   0.453  0.2853  0.5251 -0.0667
 7038SOL    HW122564   5.763   2.100   0.505  1.5055  0.7375  1.3231
 7038SOL    HW222565   5.883   2.120   0.416  0.3907  0.2971 -0.3271
 7039SOL     OW22566   5.487   6.088   3.083  0.5985  0.0473 -0.7682
 7039SOL    HW122567   5.562   6.061   3.030  1.8627  1.1699  0.3735
 7039SOL    HW222568   5.523   6.097   3.171 -0.9518  0.3406 -0.1492
 7040SOL     OW22569   1.652   0.627   4.407  0.4578  0.2751  0.0788
 7040SOL    HW122570   1.658   0.686   4.332 -0.9561  2.1235  1.3371
 7040SOL    HW222571   1.598   0.554   4.375 -0.7350  1.3809 -0.5377
 7041SOL     OW22572   5.502   2.716   2.025  0.0642 -0.3478 -0.1784
 7041SOL    HW122573   5.597   2.713   2.024  0.0566 -0.6658 -0.1219
 7041SOL    HW222574   5.479   2.797   1.980  0.3150 -1.0187 -1.5671
 7042SOL     OW22575   6.306   3.518   4.741 -0.3340 -0.4733  0.2481
 7042SOL    HW122576   6.353   3.590   4.700 -0.3488 -0.7091 -0.1922
 7042SOL    HW222577   6.324   3.442   4.685 -1.3292 -0.5423 -0.0047
 7043SOL     OW22578   0.415   5.271   0.527 -0.1346 -0.0770  0.2435
 7043SOL    HW122579   0.394   5.268   0.620 -2.3378 -1.1510 -0.2291
 7043SOL    HW222580   0.385   5.357   0.498  1.4595  0.6621  0.6681
 7044SOL     OW22581   6.063   2.433   4.429 -0.0946 -0.6241 -0.0766
 7044SOL    HW122582   5.978   2.393   4.413 -0.2370 -0.4671  0.2735
 7044SOL    HW222583   6.101   2.382   4.500 -0.9320  0.7766  1.4459
 7045SOL     OW22584   6.132   4.711   6.107  0.8595 -0.2263  0.2010
 7045SOL    HW122585   6.136   4.700   6.012  0.4794  0.0282  0.1556
 7045SOL    HW222586   6.047   4.674   6.132  1.0454 -0.4774  0.4692
 7046SOL     OW22587   2.382   5.030   0.370  0.0287 -0.2019  0.2659
 7046SOL    HW122588   2.369   5.008   0.278 -0.7397 -0.8982  0.5293
 7046SOL    HW222589   2.435   4.958   0.404 -1.3994 -1.0312  0.8273
 7047SOL     OW22590   6.115   2.363   0.663  0.1905 -0.2266 -0.2000
 7047SOL    HW122591   6.104   2.427   0.592  1.4005 -0.8763 -1.0070
 7047SOL    HW222592   6.205   2.375   0.692 -0.4658  0.4720  1.7234
 7048SOL     OW22593   3.511   1.971   0.297 -0.1823  0.1316  0.9971
 7048SOL    HW122594   3.552   1.933   0.375  0.8947 -0.9477 -0.0494
 7048SOL    HW222595   3.424   1.931   0.294  0.4792 -1.3106  0.6038
 7049SOL     OW22596   7.039   2.314   4.320 -0.0278 -0.0586  0.4300
 7049SOL    HW122597   6.973   2.383   4.317  0.6163  0.5360 -0.9013
 7049SOL    HW222598   7.079   2.323   4.407 -1.9033 -0.6855  1.4254
 7050SOL     OW22599   7.117   2.237   1.348 -0.8109  0.2702  0.0269
 7050SOL    HW122600   7.163   2.319   1.335  1.0411 -0.6207  0.5589
 7050SOL    HW222601   7.048   2.236   1.282  1.2205  0.7956 -2.2169
 7051SOL     OW22602   2.820   5.123   6.296  0.1704 -0.5682  0.5208
 7051SOL    HW122603   2.767   5.183   6.348 -0.1727  0.1056 -0.5686
 7051SOL    HW222604   2.866   5.069   6.360  0.9923  1.2664  1.5442
 7052SOL     OW22605   2.123   3.022   2.619  0.6279  0.1125  0.0829
 7052SOL    HW122606   2.092   2.948   2.671 -0.7425 -0.0955 -0.9774
 7052SOL    HW222607   2.049   3.082   2.617  1.8552  1.7556  1.2760
 7053SOL     OW22608   0.676   3.906   1.156  0.0599  0.3848 -0.1810
 7053SOL    HW122609   0.658   3.909   1.062 -0.3358 -0.1510 -0.1225
 7053SOL    HW222610   0.597   3.869   1.195  0.4068  0.1596  0.3175
 7054SOL     OW22611   4.034   6.105   0.177  0.3502 -0.4977 -0.4903
 7054SOL    HW122612   3.951   6.085   0.221 -0.3791 -1.2813 -2.1489
 7054SOL    HW222613   4.090   6.031   0.197  0.3374 -0.4224 -0.1607
 7055SOL     OW22614   0.789   5.769   2.591 -0.0999 -0.2597  0.5189
 7055SOL    HW122615   0.694   5.778   2.598  0.0732  2.6372  0.3880
 7055SOL    HW222616   0.811   5.808   2.506  1.3443  0.8337  1.3384
 7056SOL     OW22617   6.816   5.820   1.090 -0.0653  0.1367 -0.2629
 7056SOL    HW122618   6.723   5.817   1.068 -0.1863  0.2563  0.2153
 7056SOL    HW222619   6.849   5.897   1.044 -0.4829  0.8401  0.5730
 7057SOL     OW22620   0.504   1.634   6.235  0.0592 -0.6001 -0.1311
 7057SOL    HW122621   0.437   1.692   6.273 -0.7320 -1.6388  0.0956
 7057SOL    HW222622   0.587   1.676   6.258 -0.4916  0.6652 -0.3322
 7058SOL     OW22623   5.714   3.587   2.794  0.2281  0.1055 -0.1658
 7058SOL    HW122624   5.715   3.566   2.701  0.4126  0.1885 -0.1821
 7058SOL    HW222625   5.642   3.649   2.804 -1.9351 -2.3273  0.2656
 7059SOL     OW22626   0.325   0.764   0.151  0.7207  0.2949  0.3436
 7059SOL    HW122627   0.336   0.776   0.057  0.8218  1.7171  0.5140
 7059SOL    HW222628   0.231   0.776   0.165  0.5380 -0.9414  0.3130
 7060SOL     OW22629   5.146   0.770   2.981 -0.0213  0.4767  0.4409
 7060SOL    HW122630   5.202   0.828   3.032 -0.1763  0.2205  0.9075
 7060SOL    HW222631   5.115   0.705   3.044 -1.5282  1.1105  0.3788
 7061SOL     OW22632   6.357   1.173   0.064  0.0958 -0.3185 -0.2225
 7061SOL    HW122633   6.360   1.254   0.115  0.0705 -0.6752  0.3579
 7061SOL    HW222634   6.422   1.185  -0.005  0.3770  0.0357  0.1017
 7062SOL     OW22635   5.656   6.618   5.845 -0.0275 -0.1428 -0.3794
 7062SOL    HW122636   5.735   6.568   5.867  0.9319  0.2540 -2.5948
 7062SOL    HW222637   5.594   6.598   5.915  1.3586 -2.0352  0.3921
 7063SOL     OW22638   4.153   1.714   2.076  0.7735 -0.0980 -0.1943
 7063SOL    HW122639   4.092   1.782   2.048 -1.3848 -1.4904  0.8189
 7063SOL    HW222640   4.228   1.761   2.111 -0.9170  1.8233  1.0723
 7064SOL     OW22641   3.766   6.421   1.936  0.3259 -1.0690 -0.1942
 7064SOL    HW122642   3.756   6.505   1.980 -1.6000 -1.3892  0.1029
 7064SOL    HW222643   3.848   6.385   1.970 -0.5202 -0.8160  2.3428
 7065SOL     OW22644   3.734   0.890   5.248  0.0410 -0.6881  0.3285
 7065SOL    HW122645   3.675   0.825   5.287  0.1265  0.0282  1.7183
 7065SOL    HW222646   3.802   0.904   5.313  0.8790 -0.3304 -0.5947
 7066SOL     OW22647   4.333   1.266   2.870  0.3730  0.0103  0.4875
 7066SOL    HW122648   4.415   1.315   2.875  0.8097 -0.8060  2.3293
 7066SOL    HW222649   4.359   1.181   2.833  0.1266  0.1773 -0.0760
 7067SOL     OW22650   6.593   2.282   1.866 -0.3798  0.1648  0.1146
 7067SOL    HW122651   6.594   2.187   1.858  0.2759  0.0121  1.5707
 7067SOL    HW222652   6.518   2.300   1.924 -0.1341  0.4749  0.3403
 7068SOL     OW22653   2.034   1.179   4.831 -0.4234  0.1506 -0.1321
 7068SOL    HW122654   2.045   1.167   4.737  1.3958 -1.7417  0.2606
 7068SOL    HW222655   2.087   1.255   4.853  0.0735 -0.1033 -0.4623
 7069SOL     OW22656   6.994   1.069   1.290  0.1236 -0.5178 -0.2886
 7069SOL    HW122657   7.020   1.158   1.317  0.1333 -0.1841 -1.3680
 7069SOL    HW222658   7.008   1.016   1.368 -0.8140  0.6055  0.7009
 7070SOL     OW22659   0.182   2.577   4.004 -0.1511  0.9105 -0.4529
 7070SOL    HW122660   0.278   2.570   4.007 -0.1134  0.2163 -1.9599
 7070SOL    HW222661   0.154   2.498   3.958 -1.3065  1.8855 -1.4927
 7071SOL     OW22662   4.417   3.753   1.113 -0.6549  0.3373  0.3617
 7071SOL    HW122663   4.427   3.848   1.127 -0.3907  0.4422 -0.4487
 7071SOL    HW222664   4.406   3.717   1.201 -1.6352  1.2143  0.6268
 7072SOL     OW22665   3.413   3.442   5.664 -0.2723  0.6766 -0.1014
 7072SOL    HW122666   3.460   3.396   5.594 -0.6255  0.0240  0.0775
 7072SOL    HW222667   3.481   3.481   5.718  0.0266  0.6264 -0.4444
 7073SOL     OW22668   4.803   2.561   7.018 -0.2309  0.1428 -0.2295
 7073SOL    HW122669   4.805   2.541   7.112 -0.6659  0.2740 -0.1884
 7073SOL    HW222670   4.782   2.477   6.976 -0.2675  0.1341 -0.1937
 7074SOL     OW22671   5.741   5.130   0.126  0.0844  0.0609  0.5189
 7074SOL    HW122672   5.663   5.115   0.072  0.0754 -1.9279  0.9994
 7074SOL    HW222673   5.708   5.166   0.208 -0.0184  1.9118 -0.2901
 7075SOL     OW22674   0.442   4.092   1.912 -0.0598  0.6809 -0.8062
 7075SOL    HW122675   0.391   4.109   1.991 -0.3990 -1.7618 -0.4048
 7075SOL    HW222676   0.431   3.998   1.896  2.6023  0.4612 -1.9243
 7076SOL     OW22677   3.597   3.263   3.319  0.1502  0.3210 -0.0326
 7076SOL    HW122678   3.602   3.344   3.369  3.2196  0.7083 -0.7811
 7076SOL    HW222679   3.618   3.288   3.229 -1.8854 -0.8872 -0.9110
 7077SOL     OW22680   5.087   0.391   1.100  0.3237  0.5327  0.0502
 7077SOL    HW122681   5.127   0.449   1.036 -0.3599 -0.9150 -1.7760
 7077SOL    HW222682   5.111   0.303   1.071  0.6465 -0.1876  2.2581
 7078SOL     OW22683   1.971   1.485   4.605  0.7494  0.4403 -0.2724
 7078SOL    HW122684   2.013   1.399   4.599 -0.5714 -0.5792  2.9786
 7078SOL    HW222685   1.907   1.484   4.534  1.8375 -0.5702 -1.2943
 7079SOL     OW22686   6.105   7.061   4.218  0.4206  0.3348 -0.0170
 7079SOL    HW122687   6.059   7.063   4.302 -1.8841  2.1777 -1.2096
 7079SOL    HW222688   6.084   6.976   4.180  0.2944  0.0735  0.6314
 7080SOL     OW22689   6.066   4.937   7.100 -0.5109 -0.4762 -0.0358
 7080SOL    HW122690   6.089   4.990   7.177 -0.0801 -1.4490  0.5239
 7080SOL    HW222691   5.971   4.950   7.090 -0.5546 -0.2458  0.5922
 7081SOL     OW22692   5.369   5.063   5.543 -0.1852  0.2983 -0.0958
 7081SOL    HW122693   5.385   5.100   5.456  3.2433  0.6923  0.5354
 7081SOL    HW222694   5.443   5.004   5.558  2.2088  3.6660  4.1651
 7082SOL     OW22695   2.421   2.981   3.892  0.9354 -0.2829  0.5755
 7082SOL    HW122696   2.441   2.998   3.984 -0.6218 -1.5045  1.2008
 7082SOL    HW222697   2.375   2.897   3.893  3.4304 -1.8253 -1.6795
 7083SOL     OW22698   5.263   3.664   2.119  0.0652  0.5290 -0.7039
 7083SOL    HW122699   5.170   3.669   2.094 -1.0109 -1.0038  2.5232
 7083SOL    HW222700   5.279   3.744   2.168  0.8337  1.3297 -2.2060
 7084SOL     OW22701   5.690   1.075   5.483 -0.5155  0.3133  0.4710
 7084SOL    HW122702   5.596   1.078   5.502 -0.4673 -0.5295  0.9366
 7084SOL    HW222703   5.717   1.166   5.478 -1.3378  0.5640  0.4633
 7085SOL     OW22704   6.867   5.800   5.525 -0.4910  0.4861  0.2186
 7085SOL    HW122705   6.941   5.830   5.578  0.2283 -2.3513  0.9499
 7085SOL    HW222706   6.904   5.734   5.467 -2.3930 -0.9051  0.5020
 7086SOL     OW22707   0.354   5.995   2.260 -0.0772  0.3782 -0.2372
 7086SOL    HW122708   0.350   6.005   2.355 -0.2190  0.8644 -0.2902
 7086SOL    HW222709   0.439   6.032   2.235 -0.4163  1.0898 -0.3871
 7087SOL     OW22710   2.349   5.232   1.643  0.2169  0.1672 -0.1138
 7087SOL    HW122711   2.287   5.266   1.578  2.1481  1.8884 -1.1819
 7087SOL    HW222712   2.429   5.283   1.629  1.3626 -0.7983  2.3248
 7088SOL     OW22713   2.635   6.282   4.960 -0.7141  0.1577 -0.2541
 7088SOL    HW122714   2.568   6.292   4.892 -1.0558  0.3013  0.1019
 7088SOL    HW222715   2.654   6.188   4.962 -2.7213 -0.2718  1.3613
 7089SOL     OW22716   1.596   2.092   5.018  0.3464 -0.6674 -0.5093
 7089SOL    HW122717   1.584   2.013   5.070 -0.7094 -0.0132  0.2782
 7089SOL    HW222718   1.554   2.161   5.069  2.3180  0.6574 -0.5734
 7090SOL     OW22719   0.682   6.854   0.295 -0.1677  0.4010  0.3040
 7090SOL    HW122720   0.587   6.864   0.299 -0.2104  0.2969 -0.3908
 7090SOL    HW222721   0.705   6.882   0.206  0.5266  1.0579  0.6782
 7091SOL     OW22722   0.289   3.273   3.695 -0.0321  0.1655 -0.2013
 7091SOL    HW122723   0.243   3.199   3.733 -0.6018  1.0557  0.8982
 7091SOL    HW222724   0.381   3.245   3.691 -0.3834 -0.9526 -0.7440
 7092SOL     OW22725   0.346   2.670   5.502  0.6571  0.4648  0.2961
 7092SOL    HW122726   0.387   2.667   5.588  0.7800 -0.7474  0.2031
 7092SOL    HW222727   0.335   2.579   5.477 -1.0464  0.7716 -0.1849
 7093SOL     OW22728   4.057   0.983   0.478 -0.4954 -0.1216 -0.3368
 7093SOL    HW122729   4.098   0.995   0.392  0.0343 -1.6807 -0.3276
 7093SOL    HW222730   3.974   0.940   0.459 -0.0266 -1.1819 -0.0252
 7094SOL     OW22731   2.563   6.480   6.303 -0.3408 -0.4116  0.3692
 7094SOL    HW122732   2.471   6.456   6.309 -0.4438  0.0252  0.6063
 7094SOL    HW222733   2.585   6.467   6.210 -0.8950  0.3487  0.1169
 7095SOL     OW22734   2.719   3.356   0.770  0.3059  0.0283  0.4127
 7095SOL    HW122735   2.794   3.414   0.778 -0.3762  0.9348  0.3407
 7095SOL    HW222736   2.643   3.413   0.780 -0.3879 -0.7444 -0.2702
 7096SOL     OW22737   5.717   0.995   4.212  0.0625 -0.2596  0.9554
 7096SOL    HW122738   5.743   0.908   4.181  0.1346 -0.9853  2.9243
 7096SOL    HW222739   5.660   0.978   4.288 -1.0430  1.4044  0.5609
 7097SOL     OW22740   0.935   0.061   4.547  0.3496 -0.0311  0.0740
 7097SOL    HW122741   0.940   0.132   4.482  0.1884  1.5933  1.7419
 7097SOL    HW222742   0.844   0.065   4.578  0.1201 -1.5149 -0.3501
 7098SOL     OW22743   1.489   4.939   4.131 -0.5040 -0.1716  0.6977
 7098SOL    HW122744   1.408   4.913   4.175 -0.3892 -0.4062  0.7728
 7098SOL    HW222745   1.546   4.970   4.201  0.6638 -2.9882  1.1367
 7099SOL     OW22746   5.904   6.278   4.662 -0.4998  0.0916  0.0383
 7099SOL    HW122747   5.885   6.347   4.599 -0.8563  0.1389  0.1971
 7099SOL    HW222748   5.862   6.200   4.625 -1.2769  0.2626  0.5414
 7100SOL     OW22749   1.968   4.925   3.024 -0.0033  0.0137 -0.6328
 7100SOL    HW122750   2.045   4.958   3.071 -0.7946 -0.9037  1.4167
 7100SOL    HW222751   1.941   4.848   3.073 -1.8759 -0.0404 -1.6631
 7101SOL     OW22752   1.719   1.970   6.018 -0.1202  0.1654  0.2064
 7101SOL    HW122753   1.766   2.048   6.046  1.7225 -0.1922 -1.6190
 7101SOL    HW222754   1.755   1.899   6.071 -1.3677  0.4222  1.4456
 7102SOL     OW22755   0.929   2.766   1.964  0.0698 -0.2475 -0.2882
 7102SOL    HW122756   0.898   2.686   2.006  0.5764 -0.3161 -0.0434
 7102SOL    HW222757   0.999   2.737   1.905  0.8582  0.1141  0.4498
 7103SOL     OW22758   2.304   3.680   2.898 -0.4705  0.6136 -0.3373
 7103SOL    HW122759   2.353   3.617   2.950  0.4977  1.2468 -0.4661
 7103SOL    HW222760   2.357   3.759   2.899 -1.4747  1.3175 -0.5090
 7104SOL     OW22761   3.880   2.062   0.162 -0.4415 -0.5155  0.1452
 7104SOL    HW122762   3.934   2.099   0.231 -0.1993 -1.8118  0.6807
 7104SOL    HW222763   3.871   2.132   0.098 -0.2261  0.5330  1.2356
 7105SOL     OW22764   0.310   4.898   5.745  0.1889  0.5330 -0.2820
 7105SOL    HW122765   0.255   4.849   5.806 -0.0592  1.1835  0.0269
 7105SOL    HW222766   0.387   4.843   5.732 -0.1441  0.0044 -0.0440
 7106SOL     OW22767   1.026   6.275   5.030  0.4155 -0.5720  0.3145
 7106SOL    HW122768   0.939   6.314   5.025 -0.0415 -1.6915 -2.1429
 7106SOL    HW222769   1.084   6.347   5.053 -1.0696  0.3119  1.4380
 7107SOL     OW22770   6.363   1.182   6.260 -0.4050 -0.3696 -0.2937
 7107SOL    HW122771   6.287   1.238   6.275  0.3954  1.4606 -2.4532
 7107SOL    HW222772   6.438   1.236   6.286  0.2531 -2.0317  1.5318
 7108SOL     OW22773   2.969   5.760   0.902 -0.6286  0.5392 -0.1911
 7108SOL    HW122774   2.928   5.771   0.988 -0.4123 -1.3357  0.1973
 7108SOL    HW222775   2.917   5.693   0.859  0.2365  0.2905 -0.8788
 7109SOL     OW22776   1.455   6.826   5.580  0.5910  0.1469 -0.4289
 7109SOL    HW122777   1.377   6.834   5.636 -0.3020  0.1200 -1.6375
 7109SOL    HW222778   1.465   6.732   5.567  0.1667  0.1975 -1.1610
 7110SOL     OW22779   1.753   0.074   2.525 -0.2233 -0.6116 -0.3679
 7110SOL    HW122780   1.795  -0.011   2.538 -0.3027 -0.7296 -0.8691
 7110SOL    HW222781   1.687   0.079   2.595  0.7885 -0.3004  0.5997
 7111SOL     OW22782   3.130   3.305   0.542  0.7599 -0.2143 -0.6316
 7111SOL    HW122783   3.086   3.256   0.473  2.0130 -0.5905 -1.1982
 7111SOL    HW222784   3.110   3.397   0.523  0.2345 -0.3802 -0.8847
 7112SOL     OW22785   0.709   5.460   0.470 -1.1522  0.0529  0.9520
 7112SOL    HW122786   0.676   5.509   0.395 -2.7107 -1.4611  0.5797
 7112SOL    HW222787   0.803   5.479   0.472 -1.6544  3.0870  0.9379
 7113SOL     OW22788   4.050   2.264   4.943  0.0917 -0.0947 -0.0845
 7113SOL    HW122789   4.062   2.358   4.948  2.1176 -0.3535  1.1149
 7113SOL    HW222790   4.108   2.229   5.011 -2.4326 -2.0929  1.2303
 7114SOL     OW22791   6.354   6.415   5.228  0.4344  0.3269  0.3529
 7114SOL    HW122792   6.339   6.385   5.318  1.0349 -1.2074 -0.0183
 7114SOL    HW222793   6.386   6.337   5.182 -0.9788  0.7494 -1.4858
 7115SOL     OW22794   1.262   0.243   2.328  0.3103 -0.4776  0.5779
 7115SOL    HW122795   1.228   0.321   2.372 -0.3979 -0.9849  0.9388
 7115SOL    HW222796   1.327   0.207   2.389 -1.0410 -1.4744  1.4814
 7116SOL     OW22797   5.912   0.944   6.141  0.0273 -0.1016  0.0650
 7116SOL    HW122798   5.984   0.996   6.106 -0.0505  0.0889  0.1843
 7116SOL    HW222799   5.848   0.941   6.071 -0.3554  0.7220  0.3729
 7117SOL     OW22800   6.566   1.424   5.786 -0.5058  0.2648  0.0747
 7117SOL    HW122801   6.608   1.386   5.709 -0.1610  0.9691 -0.0953
 7117SOL    HW222802   6.493   1.365   5.806 -0.4902 -0.0195 -0.6867
 7118SOL     OW22803   0.571   0.598   4.564  0.3653 -0.7015  0.5898
 7118SOL    HW122804   0.632   0.584   4.492 -1.1733  0.3851 -0.9896
 7118SOL    HW222805   0.606   0.673   4.611  0.7906 -0.7260  0.3141
 7119SOL     OW22806   1.855   0.357   5.415  0.2332 -0.2794 -0.1441
 7119SOL    HW122807   1.878   0.440   5.373  1.1851  0.2914  1.4112
 7119SOL    HW222808   1.773   0.375   5.462 -0.1382 -0.5381 -0.6901
 7120SOL     OW22809   4.208   4.810   3.204 -0.1978  0.3323 -0.1535
 7120SOL    HW122810   4.171   4.742   3.260  2.4935 -0.3119  1.0219
 7120SOL    HW222811   4.276   4.765   3.154 -2.1341  0.9839 -3.7453
 7121SOL     OW22812   0.094   5.243   6.330 -0.1360  0.2620 -0.1389
 7121SOL    HW122813   0.159   5.263   6.263  1.4478 -1.9736  0.6095
 7121SOL    HW222814   0.141   5.248   6.412 -1.6144  1.2160  0.7017
 7122SOL     OW22815   3.540   1.293   1.323 -0.2686  0.1049 -0.3680
 7122SOL    HW122816   3.498   1.218   1.282  1.5786 -1.3984  0.3410
 7122SOL    HW222817   3.499   1.369   1.283 -1.2165 -1.2769 -2.1412
 7123SOL     OW22818   2.405   3.287   2.022 -0.5883 -0.8007 -0.2972
 7123SOL    HW122819   2.324   3.334   2.041  1.0465  1.7630  0.9532
 7123SOL    HW222820   2.408   3.281   1.926 -1.5132  0.4873 -0.4272
 7124SOL     OW22821   2.947   5.365   6.072 -0.0392 -0.3220  0.1730
 7124SOL    HW122822   3.026   5.371   6.125  0.9676  1.2050 -1.3868
 7124SOL    HW222823   2.906   5.451   6.079 -0.6612 -0.5585 -0.3643
 7125SOL     OW22824   0.918   6.165   2.339  0.0957 -0.1043  0.1976
 7125SOL    HW122825   0.928   6.246   2.289 -0.6827  0.4283  0.8744
 7125SOL    HW222826   1.007   6.128   2.344  0.5448  0.9573  0.2839
 7126SOL     OW22827   5.448   6.948   3.649  0.6152 -0.3501  0.0010
 7126SOL    HW122828   5.474   6.874   3.704  0.8416 -1.1440 -1.1303
 7126SOL    HW222829   5.516   6.952   3.582  1.1581  1.5451  0.6060
 7127SOL     OW22830   1.660   6.444   3.478  0.2668  0.6859 -0.0364
 7127SOL    HW122831   1.626   6.469   3.393  0.8028  0.2842 -0.3767
 7127SOL    HW222832   1.638   6.517   3.536 -0.5293  0.7498 -0.3983
 7128SOL     OW22833   2.674   1.592   5.963 -0.2623 -0.1429 -0.6529
 7128SOL    HW122834   2.605   1.535   5.998 -0.6464  0.9343  0.3935
 7128SOL    HW222835   2.638   1.680   5.970  1.2785  0.4569  0.0513
 7129SOL     OW22836   1.496   5.341   5.966  0.1851  0.7444 -0.1320
 7129SOL    HW122837   1.572   5.355   5.909  0.3122  1.0790  0.1162
 7129SOL    HW222838   1.516   5.389   6.046  0.5340 -0.7154  0.6913
 7130SOL     OW22839   3.815   3.407   5.917 -0.2577 -0.5329  0.3748
 7130SOL    HW122840   3.879   3.471   5.886  1.6874 -2.4931  0.1031
 7130SOL    HW222841   3.749   3.460   5.963  0.5282  1.7529 -0.9286
 7131SOL     OW22842   6.681   6.782   3.976 -0.4273  0.4631  0.4614
 7131SOL    HW122843   6.652   6.779   4.067 -1.1040 -0.3053  0.2351
 7131SOL    HW222844   6.652   6.868   3.945 -1.2017  0.2829  0.6626
 7132SOL     OW22845   2.313   3.651   1.409  0.1388  0.2379 -0.1187
 7132SOL    HW122846   2.283   3.742   1.410 -2.7342 -0.5809 -1.3666
 7132SOL    HW222847   2.332   3.633   1.317  3.2218  0.2139  0.4196
 7133SOL     OW22848   5.340   1.822   5.745  0.4495  0.4547  0.1513
 7133SOL    HW122849   5.306   1.776   5.668 -0.7496 -1.5299  1.7763
 7133SOL    HW222850   5.327   1.915   5.725  0.1788  0.0050 -2.0061
 7134SOL     OW22851   3.015   2.737   3.821 -0.6577  0.5584 -0.1310
 7134SOL    HW122852   2.949   2.669   3.835  0.0326 -0.1246 -0.1118
 7134SOL    HW222853   2.966   2.812   3.789 -1.2770 -0.4033 -1.5520
 7135SOL     OW22854   5.575   2.279   4.215  0.3535 -0.4104  0.8189
 7135SOL    HW122855   5.613   2.365   4.197 -2.1466  0.5117 -0.5193
 7135SOL    HW222856   5.487   2.299   4.249 -0.0294 -2.4341  1.1102
 7136SOL     OW22857   1.453   3.924   2.611  0.8337  0.7165  0.3401
 7136SOL    HW122858   1.370   3.917   2.659 -0.0562  1.4649 -1.0503
 7136SOL    HW222859   1.493   3.838   2.622 -0.0612  0.3736  1.1263
 7137SOL     OW22860   6.850   6.322   4.503 -0.5298  0.3173 -0.7127
 7137SOL    HW122861   6.759   6.311   4.530 -1.2218  2.9643 -1.6597
 7137SOL    HW222862   6.868   6.415   4.518  2.0339 -0.1359 -0.5585
 7138SOL     OW22863   2.110   2.648   1.717 -0.7087  0.5665 -0.3745
 7138SOL    HW122864   2.115   2.735   1.757 -1.9411 -0.2924  1.8325
 7138SOL    HW222865   2.022   2.644   1.679 -1.5608 -0.4357  1.5465
 7139SOL     OW22866   1.220   2.419   4.672  0.2188 -0.0670  1.1478
 7139SOL    HW122867   1.145   2.395   4.618  1.6259 -1.4547 -0.3142
 7139SOL    HW222868   1.287   2.353   4.651  2.2755  1.7759  1.4648
 7140SOL     OW22869   4.148   3.631   3.496 -0.0825 -0.8081  0.2926
 7140SOL    HW122870   4.199   3.618   3.416  0.1330  0.8480  0.1176
 7140SOL    HW222871   4.193   3.703   3.542 -1.7758  0.1675  0.5276
 7141SOL     OW22872   5.623   5.398   3.191  0.5534  0.1951  0.2296
 7141SOL    HW122873   5.699   5.356   3.152 -0.6605 -0.3677 -1.6770
 7141SOL    HW222874   5.611   5.353   3.275  1.2119 -0.9835 -0.2930
 7142SOL     OW22875   3.569   2.969   0.954 -0.1421 -0.4936  0.3533
 7142SOL    HW122876   3.661   2.971   0.929 -0.3028  0.7770 -0.2180
 7142SOL    HW222877   3.534   2.893   0.907  0.4264 -0.4705 -0.1307
 7143SOL     OW22878   5.629   4.376   1.489  0.1273 -0.2246 -0.1912
 7143SOL    HW122879   5.576   4.427   1.551  1.0242 -0.5466  0.8745
 7143SOL    HW222880   5.706   4.431   1.472  2.2346 -1.9826  2.7123
 7144SOL     OW22881   6.089   2.318   6.576 -0.1578 -0.1557  0.1539
 7144SOL    HW122882   6.038   2.277   6.506  1.0693  0.5174 -1.1963
 7144SOL    HW222883   6.180   2.295   6.556  0.5383  2.7279 -0.3799
 7145SOL     OW22884   6.443   3.692   3.867  0.2216  0.2822  0.4355
 7145SOL    HW122885   6.385   3.718   3.938  0.1783 -0.8733  0.8322
 7145SOL    HW222886   6.393   3.629   3.816  0.8953 -0.2366  0.4018
 7146SOL     OW22887   1.880   5.390   3.559 -0.2512 -0.4764 -0.5330
 7146SOL    HW122888   1.909   5.478   3.537 -1.2652 -0.4030 -1.7519
 7146SOL    HW222889   1.927   5.367   3.639 -1.3234  1.8667  0.8645
 7147SOL     OW22890   4.904   6.068   4.888 -0.7622 -0.3533  0.0200
 7147SOL    HW122891   4.852   6.101   4.961 -1.3786 -0.7845 -0.2165
 7147SOL    HW222892   4.931   5.980   4.915 -1.9001 -0.9504 -0.6913
 7148SOL     OW22893   0.337   0.588   4.370 -0.1470 -0.5641  0.6618
 7148SOL    HW122894   0.361   0.589   4.463 -0.2523 -1.4074  0.7060
 7148SOL    HW222895   0.258   0.535   4.366  0.1157 -0.9162  0.0244
 7149SOL     OW22896   2.554   0.032   6.705  0.1448  0.4235  0.0566
 7149SOL    HW122897   2.644   0.009   6.684 -0.2592 -1.3436  0.1131
 7149SOL    HW222898   2.537  -0.012   6.788 -0.1332  2.5017  1.1712
 7150SOL     OW22899   3.054   4.810   5.667 -0.1341  0.0660  0.5284
 7150SOL    HW122900   3.094   4.882   5.715  1.6516 -0.5353  0.0335
 7150SOL    HW222901   2.961   4.831   5.664  0.2090  1.8360  1.2485
 7151SOL     OW22902   5.388   4.599   4.837 -0.1907  0.3322 -0.4452
 7151SOL    HW122903   5.454   4.613   4.770  2.1018  0.0738  1.6111
 7151SOL    HW222904   5.314   4.654   4.811  2.2012  3.5424 -1.0171
 7152SOL     OW22905   5.755   3.012   4.089 -0.4918  0.5933 -0.5650
 7152SOL    HW122906   5.713   3.098   4.095  1.3529  1.6359 -1.3195
 7152SOL    HW222907   5.848   3.033   4.075  0.2191 -1.5437  0.5473
 7153SOL     OW22908   3.260   5.258   1.425  0.1202  0.3614  0.1943
 7153SOL    HW122909   3.222   5.173   1.406  0.7672  0.5177 -2.1800
 7153SOL    HW222910   3.320   5.274   1.352  0.8029  2.3844  1.1201
 7154SOL     OW22911   6.000   2.986   5.149  0.0996  0.1184 -0.0039
 7154SOL    HW122912   5.968   3.076   5.143  0.4442  0.3424  1.2050
 7154SOL    HW222913   5.954   2.939   5.080  1.3280  1.6087 -1.9685
 7155SOL     OW22914   3.116   2.439   2.847 -0.7116 -0.2193 -0.4057
 7155SOL    HW122915   3.032   2.455   2.804 -0.7312  0.1054 -0.2511
 7155SOL    HW222916   3.104   2.355   2.891 -0.2128 -1.2761 -2.2017
 7156SOL     OW22917   0.390   0.255   1.929 -0.5180 -0.0937 -0.6034
 7156SOL    HW122918   0.465   0.242   1.870 -0.3756  0.8006 -0.6281
 7156SOL    HW222919   0.318   0.279   1.871 -0.3291  0.9857 -0.4129
 7157SOL     OW22920   2.200   0.223   5.093 -0.3181 -0.3834 -1.0284
 7157SOL    HW122921   2.208   0.316   5.070  1.4653  0.5382  2.5291
 7157SOL    HW222922   2.270   0.180   5.045  0.8599  0.7044 -0.3294
 7158SOL     OW22923   5.567   4.876   5.494  0.1976 -0.6814  0.1822
 7158SOL    HW122924   5.640   4.859   5.435  0.4499  0.0970  0.2638
 7158SOL    HW222925   5.516   4.795   5.492 -1.3390  0.2003 -3.2158
 7159SOL     OW22926   0.958   4.515   6.422  0.2156 -0.3153 -0.1626
 7159SOL    HW122927   0.915   4.525   6.337 -0.3431 -0.2599  0.1251
 7159SOL    HW222928   0.959   4.603   6.459 -0.4693 -0.5009  0.3270
 7160SOL     OW22929   1.468   0.317   4.527 -0.8146  0.1768 -0.6600
 7160SOL    HW122930   1.526   0.334   4.453  0.5511  1.0579  0.5639
 7160SOL    HW222931   1.409   0.247   4.496 -0.4321  0.6768 -2.6149
 7161SOL     OW22932   3.109   2.024   2.868 -0.3628  0.2660 -0.5882
 7161SOL    HW122933   3.078   1.956   2.808 -1.6731 -1.1701  1.5882
 7161SOL    HW222934   3.043   2.092   2.863 -0.9256 -0.2400 -0.1638
 7162SOL     OW22935   3.492   6.907   6.186  0.7189 -0.1265  0.2490
 7162SOL    HW122936   3.446   6.879   6.265 -2.6294 -0.6788 -1.6941
 7162SOL    HW222937   3.443   6.984   6.156  2.6746  0.8337 -0.6929
 7163SOL     OW22938   6.396   5.228   4.392  0.4798  0.0967  0.4358
 7163SOL    HW122939   6.377   5.297   4.456  0.8497 -0.4256  1.1273
 7163SOL    HW222940   6.484   5.197   4.416  0.9795  0.4636 -0.8586
 7164SOL     OW22941   6.426   2.310   2.471 -0.3058 -0.6643 -0.0948
 7164SOL    HW122942   6.505   2.329   2.420  0.0864  0.1947  0.7950
 7164SOL    HW222943   6.436   2.219   2.498  0.4499 -0.5198  0.1229
 7165SOL     OW22944   2.834   4.916   5.508  0.1447 -0.0970 -0.5294
 7165SOL    HW122945   2.762   4.905   5.446 -0.1951 -0.1088 -0.1304
 7165SOL    HW222946   2.794   4.958   5.585  0.6850  0.4934 -0.5589
 7166SOL     OW22947   2.190   2.094   3.994 -0.0359  0.2970  0.5629
 7166SOL    HW122948   2.103   2.127   3.974 -0.7851 -1.0582  1.4103
 7166SOL    HW222949   2.198   2.015   3.941  0.3910  0.0352  1.0077
 7167SOL     OW22950   5.879   5.830   0.848  1.0044  0.0020 -0.4698
 7167SOL    HW122951   5.864   5.791   0.762  2.3847  0.7289 -1.0768
 7167SOL    HW222952   5.866   5.758   0.910 -1.4906 -0.1926 -1.1164
 7168SOL     OW22953   1.863   4.147   6.417  0.1484 -0.2668 -0.6130
 7168SOL    HW122954   1.877   4.154   6.323  0.3186 -2.7783 -0.8260
 7168SOL    HW222955   1.943   4.107   6.451 -0.4236 -0.5660  0.4269
 7169SOL     OW22956   6.146   1.852   1.266  0.2927  0.6262  0.0314
 7169SOL    HW122957   6.095   1.932   1.254 -3.9596 -1.7050  0.5715
 7169SOL    HW222958   6.166   1.822   1.177 -0.1512  1.1083 -0.2365
 7170SOL     OW22959   2.600   1.945   4.917  0.2334 -0.1506 -0.0865
 7170SOL    HW122960   2.508   1.970   4.908  0.7683  1.0513 -3.5989
 7170SOL    HW222961   2.615   1.884   4.845  1.4297 -3.2881  2.5593
 7171SOL     OW22962   3.172   1.769   2.018  0.2984  0.2143  0.3783
 7171SOL    HW122963   3.102   1.821   2.057 -0.6396  0.6708 -1.7960
 7171SOL    HW222964   3.128   1.692   1.982  1.1245 -0.1477  0.1029
 7172SOL     OW22965   0.938   1.404   2.934 -0.3253 -0.4522  0.1952
 7172SOL    HW122966   0.882   1.482   2.930 -0.2561 -0.4047  0.1506
 7172SOL    HW222967   0.971   1.402   3.024  1.5853  0.9139 -0.4171
 7173SOL     OW22968   0.347   0.662   5.580  0.7521 -0.1706 -0.1888
 7173SOL    HW122969   0.349   0.712   5.662 -0.3672 -0.0978 -0.1989
 7173SOL    HW222970   0.311   0.577   5.604 -2.1238  0.7023 -1.0099
 7174SOL     OW22971   1.892   6.272   3.419  0.3416  0.1578  0.0225
 7174SOL    HW122972   1.815   6.327   3.431  0.4059 -0.0965  1.7192
 7174SOL    HW222973   1.957   6.330   3.379 -0.6588  0.3972 -1.3307
 7175SOL     OW22974   0.556   5.334   0.229 -0.2109 -0.5521 -0.1557
 7175SOL    HW122975   0.529   5.242   0.240  0.8322 -0.8698 -0.1541
 7175SOL    HW222976   0.607   5.353   0.308  2.2814 -0.9959 -1.5390
 7176SOL     OW22977   0.400   5.825   0.703 -0.3219 -0.2710  0.1645
 7176SOL    HW122978   0.484   5.861   0.735  0.0725 -0.8896 -0.1543
 7176SOL    HW222979   0.407   5.829   0.608  0.3661 -2.5593  0.0722
 7177SOL     OW22980   5.528   0.122   4.519  0.3783  0.3409 -0.0665
 7177SOL    HW122981   5.548   0.077   4.601  0.5947  0.1076 -0.2478
 7177SOL    HW222982   5.443   0.086   4.492  0.4554  0.1894 -0.1070
 7178SOL     OW22983   2.571   2.597   0.530  0.3862  0.0683  0.0370
 7178SOL    HW122984   2.580   2.607   0.625  0.6733 -0.5062  0.0717
 7178SOL    HW222985   2.649   2.548   0.504 -1.1089 -2.3471 -0.1011
 7179SOL     OW22986   4.627   1.481   6.896  0.2489 -0.0866 -0.0421
 7179SOL    HW122987   4.704   1.491   6.841 -0.5809  0.4425 -1.1419
 7179SOL    HW222988   4.654   1.419   6.964  1.4423 -0.3829 -0.7615
 7180SOL     OW22989   2.250   0.407   0.973 -0.3625  0.7351 -0.2259
 7180SOL    HW122990   2.263   0.481   0.913 -2.5652  0.5988 -0.9419
 7180SOL    HW222991   2.233   0.448   1.058  0.9691  0.9575 -0.0372
 7181SOL     OW22992   2.400   3.587   5.555 -0.0197  0.0652  0.5260
 7181SOL    HW122993   2.306   3.568   5.549  0.0790 -0.0899 -1.0875
 7181SOL    HW222994   2.439   3.503   5.577 -0.1866 -0.0888  0.2496
 7182SOL     OW22995   4.708   2.997   6.738  0.0136 -0.4665  0.0402
 7182SOL    HW122996   4.744   2.966   6.655  1.1003 -2.0433  1.0470
 7182SOL    HW222997   4.650   2.926   6.767 -0.2827  0.0243  0.6769
 7183SOL     OW22998   0.832   3.050   6.939  0.0329  0.3296  0.2088
 7183SOL    HW122999   0.805   3.057   6.848 -0.3961  0.4479  0.3365
 7183SOL    HW223000   0.927   3.041   6.937 -0.1638 -2.2745 -0.3701
 7184SOL     OW23001   4.022   6.206   5.246  0.3257 -0.0914 -0.4129
 7184SOL    HW123002   3.993   6.191   5.156 -0.1447 -0.9807 -0.1195
 7184SOL    HW223003   4.067   6.126   5.271  0.5580  0.1959  0.1135
 7185SOL     OW23004   6.589   1.235   2.700  0.1147  0.7863 -0.4764
 7185SOL    HW123005   6.617   1.166   2.760  0.1664  0.9982 -0.2503
 7185SOL    HW223006   6.634   1.216   2.618  0.5223  0.8311 -0.2667
 7186SOL     OW23007   5.565   0.796   0.401  0.3581  0.6144 -0.3279
 7186SOL    HW123008   5.655   0.762   0.397 -0.1546 -0.6582 -2.1420
 7186SOL    HW223009   5.543   0.815   0.310  0.4569  5.7369  0.4250
 7187SOL     OW23010   4.410   3.214   0.217 -0.4309  0.3862 -0.0173
 7187SOL    HW123011   4.363   3.297   0.223 -1.5292 -0.3633  3.1733
 7187SOL    HW223012   4.496   3.233   0.253 -0.1946  0.4103 -0.5721
 7188SOL     OW23013   1.324   6.802   3.528  0.2170 -0.0178 -0.7085
 7188SOL    HW123014   1.292   6.891   3.515 -1.0430 -0.1441  1.0295
 7188SOL    HW223015   1.381   6.808   3.605 -0.8468 -0.8575  0.1909
 7189SOL     OW23016   1.506   2.556   6.020  0.2981  0.1644  0.2692
 7189SOL    HW123017   1.508   2.491   6.089  2.2812 -0.1900 -0.0625
 7189SOL    HW223018   1.423   2.602   6.032  0.2008 -0.4739  2.3065
 7190SOL     OW23019   1.896   6.651   5.565  0.3159  0.0070 -0.3698
 7190SOL    HW123020   1.897   6.729   5.509  1.6437  0.3481  0.1022
 7190SOL    HW223021   1.959   6.591   5.525  1.0322  0.1241  0.5545
 7191SOL     OW23022   1.478   5.352   4.870 -0.9066 -0.0233  0.0612
 7191SOL    HW123023   1.464   5.291   4.943  2.3004 -1.2622 -0.1526
 7191SOL    HW223024   1.518   5.429   4.911 -0.1986 -0.2350 -0.2088
 7192SOL     OW23025   1.328   6.441   3.698 -0.0985  0.4331 -1.4182
 7192SOL    HW123026   1.392   6.509   3.721  0.0077  0.5195 -1.9481
 7192SOL    HW223027   1.294   6.468   3.613 -0.3895  0.0615 -1.4221
 7193SOL     OW23028   4.617   4.434   0.654  0.3317 -0.2243  0.1635
 7193SOL    HW123029   4.527   4.448   0.681  1.2002  0.5201  2.9538
 7193SOL    HW223030   4.633   4.341   0.671 -0.4051 -0.8523 -2.1969
 7194SOL     OW23031   0.458   3.595   3.630  0.5812  0.1716  0.4961
 7194SOL    HW123032   0.393   3.657   3.597 -1.5925 -1.4637  1.4511
 7194SOL    HW223033   0.478   3.538   3.555  0.6739  0.4946  0.2770
 7195SOL     OW23034   5.687   3.427   3.015  0.3512 -0.2311  0.0468
 7195SOL    HW123035   5.741   3.467   3.084  0.0512 -1.7984  1.2389
 7195SOL    HW223036   5.716   3.470   2.934  2.5997 -0.2161  0.7881
 7196SOL     OW23037   4.243   2.477   4.833  0.1263  0.4410 -0.5597
 7196SOL    HW123038   4.223   2.570   4.825 -1.2852  0.1692 -0.4437
 7196SOL    HW223039   4.296   2.471   4.912 -1.8845  0.8910  0.9147
 7197SOL     OW23040   6.213   2.684   6.562 -0.6514 -0.2906  0.0853
 7197SOL    HW123041   6.288   2.744   6.566 -0.1369 -0.6415 -2.6956
 7197SOL    HW223042   6.138   2.741   6.543 -0.4898 -0.3020 -0.6061
 7198SOL     OW23043   3.411   2.579   6.766  0.2880 -0.0174 -0.2057
 7198SOL    HW123044   3.401   2.487   6.745 -1.9202  0.5218 -1.9054
 7198SOL    HW223045   3.358   2.592   6.845  2.4753 -0.5650  1.4595
 7199SOL     OW23046   5.173   4.115   3.322  0.1910  0.2321  0.8621
 7199SOL    HW123047   5.245   4.053   3.316  0.0940  0.1684  0.2985
 7199SOL    HW223048   5.207   4.196   3.283 -0.4047 -0.1375 -0.4860
 7200SOL     OW23049   6.716   2.248   3.554  0.1494  0.0607 -0.8285
 7200SOL    HW123050   6.673   2.330   3.579 -0.1144  0.2265 -1.7673
 7200SOL    HW223051   6.709   2.193   3.632  0.5306  1.0011 -0.1078
 7201SOL     OW23052   4.734   1.768   1.358  0.0314  0.0806 -0.6733
 7201SOL    HW123053   4.644   1.779   1.389  0.2358 -0.4623  0.1552
 7201SOL    HW223054   4.733   1.804   1.269 -0.6968  1.2470 -0.2188
 7202SOL     OW23055   3.584   2.430   7.043  0.1497 -0.1863  0.0822
 7202SOL    HW123056   3.495   2.459   7.023 -0.9042 -2.6074  0.8079
 7202SOL    HW223057   3.640   2.476   6.980 -1.9667 -0.8843 -2.4991
 7203SOL     OW23058   3.550   2.761   3.203 -0.2646 -0.1565  0.7253
 7203SOL    HW123059   3.642   2.736   3.218  0.0113  0.4411  0.1072
 7203SOL    HW223060   3.538   2.751   3.109 -1.3735 -1.9404  1.0029
 7204SOL     OW23061   2.663   3.610   1.278  0.0289  0.0815 -0.3024
 7204SOL    HW123062   2.640   3.660   1.356 -1.3034 -0.1658 -0.5212
 7204SOL    HW223063   2.720   3.540   1.310  1.6979  1.5291  0.0463
 7205SOL     OW23064   2.310   0.538   2.585 -0.1150 -0.4289 -0.1070
 7205SOL    HW123065   2.323   0.589   2.665  1.6458 -0.8545 -0.0706
 7205SOL    HW223066   2.317   0.602   2.514 -2.5748  0.1018  0.0547
 7206SOL     OW23067   1.443   1.042   2.410 -0.5937 -0.1674 -0.0718
 7206SOL    HW123068   1.411   1.128   2.385 -0.7842 -0.4584 -0.8575
 7206SOL    HW223069   1.483   1.007   2.330  2.1872  0.3954  0.9665
 7207SOL     OW23070   6.139   7.109   2.781  0.0418 -0.2462 -0.0120
 7207SOL    HW123071   6.128   7.168   2.706  0.6540 -1.3504 -0.9891
 7207SOL    HW223072   6.051   7.074   2.797 -0.2026  0.4315  0.1778
 7208SOL     OW23073   6.045   7.062   1.143  0.3484 -0.0383 -0.3731
 7208SOL    HW123074   6.127   7.079   1.191 -0.1954  2.1720 -0.0981
 7208SOL    HW223075   6.073   7.035   1.056  1.3508 -1.0180  0.2250
 7209SOL     OW23076   2.657   3.773   4.236  0.0888 -0.2839 -0.5102
 7209SOL    HW123077   2.572   3.762   4.194 -0.6150 -1.3412  1.0904
 7209SOL    HW223078   2.658   3.864   4.265  0.1709  0.1669 -1.8996
 7210SOL     OW23079   3.789   0.508   1.185 -0.2609 -0.5311  0.2962
 7210SOL    HW123080   3.775   0.603   1.192  1.4210 -0.2377  0.0805
 7210SOL    HW223081   3.706   0.474   1.153 -0.2619  1.1436 -1.7012
 7211SOL     OW23082   4.725   1.900   1.124 -0.2874  0.0403  0.6709
 7211SOL    HW123083   4.669   1.946   1.061  1.4534  1.7145  0.2518
 7211SOL    HW223084   4.814   1.914   1.091  0.4852 -1.4448  2.0117
 7212SOL     OW23085   3.117   3.935   5.913 -0.2476 -0.1459 -0.3562
 7212SOL    HW123086   3.072   3.851   5.903 -0.9086  0.1894 -0.2321
 7212SOL    HW223087   3.174   3.923   5.989  2.0844 -1.5258 -2.1649
 7213SOL     OW23088   4.417   3.502   3.100  0.2292 -0.5135 -0.5245
 7213SOL    HW123089   4.443   3.590   3.073  1.5862 -0.8960 -0.5174
 7213SOL    HW223090   4.322   3.501   3.087  0.1150  1.0924 -0.0888
 7214SOL     OW23091   5.684   0.649   2.208  0.2633 -0.5200 -0.5054
 7214SOL    HW123092   5.606   0.640   2.262 -0.0421 -0.9666 -1.0046
 7214SOL    HW223093   5.702   0.560   2.177  0.6265 -0.3274 -0.8653
 7215SOL     OW23094   6.854   5.663   0.687 -0.0967 -0.4286 -0.2666
 7215SOL    HW123095   6.807   5.646   0.769  0.7013 -1.5807 -0.0184
 7215SOL    HW223096   6.847   5.758   0.674 -0.2323 -0.2249  1.1435
 7216SOL     OW23097   5.344   4.860   1.360 -0.1788 -0.0109  0.0147
 7216SOL    HW123098   5.282   4.816   1.419  0.7593  0.1587  1.1798
 7216SOL    HW223099   5.408   4.900   1.419  0.9769 -0.0901 -1.1363
 7217SOL     OW23100   6.482   3.078   6.339 -0.3536 -0.0956 -0.1786
 7217SOL    HW123101   6.482   3.171   6.362 -1.7258  0.0333 -0.5812
 7217SOL    HW223102   6.574   3.052   6.342 -0.0857  0.8979  1.4215
 7218SOL     OW23103   3.151   1.461   0.703 -0.3373  0.4212  0.2251
 7218SOL    HW123104   3.094   1.454   0.627 -0.9110  1.2375  0.5649
 7218SOL    HW223105   3.213   1.530   0.681  0.1072 -0.0055  0.1212
 7219SOL     OW23106   4.657   5.824   6.100 -0.6342 -0.0608  0.2864
 7219SOL    HW123107   4.679   5.914   6.126 -0.0566  0.2868 -1.2463
 7219SOL    HW223108   4.739   5.775   6.112 -0.7716 -0.2278  0.5295
 7220SOL     OW23109   0.629   4.112   3.533  1.1568 -0.3709 -0.8578
 7220SOL    HW123110   0.722   4.121   3.511  1.4037 -0.3392  0.1161
 7220SOL    HW223111   0.589   4.074   3.456  2.1014 -0.9596 -1.0696
 7221SOL     OW23112   4.921   6.659   5.619 -0.0205  0.1582 -0.1693
 7221SOL    HW123113   4.979   6.589   5.650  0.6156  0.4706 -0.6457
 7221SOL    HW223114   4.952   6.679   5.531 -2.1501 -1.1126 -1.2954
 7222SOL     OW23115   0.731   6.289   4.836  0.6451  0.2263  0.2949
 7222SOL    HW123116   0.721   6.355   4.767 -0.8585  0.7044  0.9267
 7222SOL    HW223117   0.681   6.324   4.910  1.0855 -0.9211  1.1591
 7223SOL     OW23118   3.428   5.460   1.669 -0.1836  0.7077  0.3420
 7223SOL    HW123119   3.499   5.512   1.707  0.3187  0.0896  0.2731
 7223SOL    HW223120   3.349   5.492   1.712  0.1602  1.2979  0.5411
 7224SOL     OW23121   0.660   3.533   0.570 -0.8111  0.3807 -0.0675
 7224SOL    HW123122   0.607   3.577   0.504 -0.1036  0.4482 -0.6095
 7224SOL    HW223123   0.709   3.467   0.520 -0.5864  0.1484  0.4595
 7225SOL     OW23124   2.079   1.501   5.480 -0.4357 -0.4627 -0.3599
 7225SOL    HW123125   2.030   1.537   5.407 -0.9233 -0.5907 -0.0976
 7225SOL    HW223126   2.081   1.570   5.546 -0.5054 -0.5548 -0.2596
 7226SOL     OW23127   5.745   4.132   3.752 -0.1697  0.3483 -0.1160
 7226SOL    HW123128   5.829   4.161   3.787 -0.3422 -0.1117  0.7009
 7226SOL    HW223129   5.686   4.206   3.767 -0.1723  0.2628  0.3212
 7227SOL     OW23130   1.102   0.168   3.683  0.2959  0.1554 -0.4089
 7227SOL    HW123131   1.146   0.178   3.598  0.1991 -2.6979 -0.8832
 7227SOL    HW223132   1.021   0.122   3.663  0.4986 -1.0236  1.2620
 7228SOL     OW23133   1.411   4.611   0.030 -0.0934  0.6036 -0.6804
 7228SOL    HW123134   1.336   4.552   0.022  1.5285 -1.8556  1.1010
 7228SOL    HW223135   1.483   4.565  -0.012  0.8816  2.1333 -0.7808
 7229SOL     OW23136   2.308   0.616   0.810 -0.8973  0.1354 -0.0850
 7229SOL    HW123137   2.308   0.706   0.843  2.7291  0.4026 -0.4351
 7229SOL    HW223138   2.335   0.624   0.718 -0.4134 -1.3022 -0.0943
 7230SOL     OW23139   2.976   2.443   6.103  0.3316  0.7830 -0.4176
 7230SOL    HW123140   2.921   2.411   6.175 -0.3005  0.9645 -0.8090
 7230SOL    HW223141   3.056   2.392   6.110 -0.5636 -0.7707 -0.9100
 7231SOL     OW23142   1.235   5.303   2.423 -0.2667  0.3253  0.3422
 7231SOL    HW123143   1.185   5.223   2.437  1.0383 -0.8321 -1.2837
 7231SOL    HW223144   1.168   5.372   2.418 -1.4159 -0.6266  1.7169
 7232SOL     OW23145   4.662   1.454   4.898  0.4507  1.2220 -0.2368
 7232SOL    HW123146   4.593   1.499   4.948  0.8635 -0.5297  2.0604
 7232SOL    HW223147   4.614   1.406   4.831 -0.7340 -0.3606  1.6165
 7233SOL     OW23148   5.055   0.758   5.494  0.3923  0.1407 -0.0809
 7233SOL    HW123149   5.089   0.716   5.416 -2.6156 -0.3130 -1.2795
 7233SOL    HW223150   5.014   0.839   5.462  1.5521  1.4183  1.4736
 7234SOL     OW23151   2.400   0.818   1.196 -0.0101 -0.1614 -0.3328
 7234SOL    HW123152   2.489   0.787   1.182 -0.5557 -0.7905 -3.2319
 7234SOL    HW223153   2.364   0.827   1.107 -2.3748  1.4598  0.6732
 7235SOL     OW23154   3.350   3.562   7.136 -0.0033  0.1815 -0.2429
 7235SOL    HW123155   3.325   3.491   7.196 -2.6803  1.1597 -0.0658
 7235SOL    HW223156   3.404   3.620   7.190 -1.7079  0.6358  1.0535
 7236SOL     OW23157   0.248   1.296   1.129  0.0732 -0.2434 -0.1651
 7236SOL    HW123158   0.194   1.222   1.104 -1.3033  0.5306  0.3932
 7236SOL    HW223159   0.274   1.277   1.219  3.5286 -2.1686 -1.4182
 7237SOL     OW23160   5.867   2.247   0.994 -0.0004 -0.3312 -0.2304
 7237SOL    HW123161   5.846   2.198   0.914  0.4771  0.7371 -1.0253
 7237SOL    HW223162   5.781   2.277   1.026 -0.0053  2.4701 -2.4772
 7238SOL     OW23163   2.354   0.858   6.071  0.4172 -0.3110 -0.3711
 7238SOL    HW123164   2.404   0.792   6.118  1.8629  1.8924  1.3949
 7238SOL    HW223165   2.409   0.882   5.996  1.4335  1.0422  0.7434
 7239SOL     OW23166   1.245   5.242   5.863  0.0036 -1.3327 -0.2305
 7239SOL    HW123167   1.200   5.223   5.946  0.4447  0.8949  0.6075
 7239SOL    HW223168   1.334   5.264   5.890  0.6847 -2.3932 -1.5288
 7240SOL     OW23169   2.890   6.892   0.793  0.4903  0.1222  0.6191
 7240SOL    HW123170   2.816   6.836   0.771  0.8430 -0.4183  0.7788
 7240SOL    HW223171   2.956   6.872   0.727  0.6044  0.3793  0.6555
 7241SOL     OW23172   1.180   3.008   1.328  0.0423  0.9030 -0.0675
 7241SOL    HW123173   1.091   3.042   1.337  0.2328  1.6433 -0.8630
 7241SOL    HW223174   1.221   3.025   1.412 -0.3073  1.3528  0.0159
 7242SOL     OW23175   5.212   4.204   6.521  0.0331  0.5946  0.2137
 7242SOL    HW123176   5.191   4.233   6.432  0.4934  2.8985  0.7776
 7242SOL    HW223177   5.307   4.193   6.521  0.1677  1.6434  0.6680
 7243SOL     OW23178   5.536   1.312   6.825 -0.0769  0.0327  0.6669
 7243SOL    HW123179   5.560   1.225   6.859 -1.6121 -1.6326 -2.1285
 7243SOL    HW223180   5.617   1.345   6.786  0.3975 -0.3505  1.2878
 7244SOL     OW23181   4.153   0.758   4.507  0.2959 -0.3610 -0.5896
 7244SOL    HW123182   4.219   0.692   4.527  0.9635  1.3677  4.2515
 7244SOL    HW223183   4.073   0.725   4.547  0.1100  0.7413 -0.0027
 7245SOL     OW23184   0.994   1.721   4.359  0.1019 -0.5181 -0.0554
 7245SOL    HW123185   0.915   1.685   4.400 -0.3216 -0.3282 -0.6824
 7245SOL    HW223186   1.007   1.666   4.281  1.9588 -2.0647  1.2600
 7246SOL     OW23187   3.553   1.231   5.380  0.0938 -0.2711 -0.3035
 7246SOL    HW123188   3.588   1.302   5.435 -1.5934  0.0821  0.3624
 7246SOL    HW223189   3.547   1.156   5.438 -2.1662  0.2378  0.1974
 7247SOL     OW23190   4.038   1.448   1.046  0.2116 -0.0827 -0.1771
 7247SOL    HW123191   4.130   1.472   1.056 -0.0282  1.5738 -1.5072
 7247SOL    HW223192   4.013   1.415   1.133  1.3761  1.9014  0.9930
 7248SOL     OW23193   3.791   5.180   1.757  0.2303  0.0153 -0.0686
 7248SOL    HW123194   3.855   5.251   1.755 -0.4035  0.5994  0.2359
 7248SOL    HW223195   3.729   5.205   1.825 -1.8873  0.8132 -2.1479
 7249SOL     OW23196   5.326   4.457   5.252 -0.0674  0.1193  0.5421
 7249SOL    HW123197   5.251   4.424   5.203  0.9119 -0.1468 -0.8311
 7249SOL    HW223198   5.358   4.532   5.201  1.1507 -0.3455  0.5810
 7250SOL     OW23199   4.059   6.497   5.315  0.0739  0.1163  0.7118
 7250SOL    HW123200   4.034   6.411   5.281 -0.9508  0.4864  0.4885
 7250SOL    HW223201   4.008   6.507   5.395 -0.3143  0.7843  0.3897
 7251SOL     OW23202   0.402   6.972   6.344 -0.0657  0.1452 -0.4889
 7251SOL    HW123203   0.307   6.976   6.330 -0.4962  0.7626  2.1048
 7251SOL    HW223204   0.415   6.896   6.401  0.9271  0.3964 -0.3575
 7252SOL     OW23205   6.437   3.103   3.150  0.0291 -0.3720 -0.5615
 7252SOL    HW123206   6.529   3.115   3.127 -0.1178 -1.4220 -1.8402
 7252SOL    HW223207   6.430   3.011   3.176 -0.2794  0.2070  1.6436
 7253SOL     OW23208   4.068   5.269   6.812 -0.4799  0.1043 -0.0322
 7253SOL    HW123209   4.163   5.261   6.809 -0.5619 -0.6328 -1.6146
 7253SOL    HW223210   4.050   5.353   6.768 -0.5329  0.7692  1.2066
 7254SOL     OW23211   6.323   2.417   7.120  0.1203 -0.1777 -0.0093
 7254SOL    HW123212   6.366   2.374   7.194  0.4671 -0.0155 -0.1169
 7254SOL    HW223213   6.290   2.345   7.066  1.2646 -0.3226 -0.5238
 7255SOL     OW23214   4.641   5.100   3.227 -0.4550 -0.8110 -0.1803
 7255SOL    HW123215   4.698   5.174   3.249 -0.3582 -0.0703 -2.6054
 7255SOL    HW223216   4.696   5.023   3.242  0.9942 -0.1531 -1.7169
 7256SOL     OW23217   5.807   4.531   5.876 -0.8731  0.3215 -0.8115
 7256SOL    HW123218   5.721   4.513   5.839 -0.5426 -0.4164 -1.2233
 7256SOL    HW223219   5.859   4.563   5.802  0.7649 -4.1699 -1.9172
 7257SOL     OW23220   6.465   1.716   4.398  0.3881  0.5202 -0.2235
 7257SOL    HW123221   6.543   1.772   4.389  1.0715 -0.4347 -0.3761
 7257SOL    HW223222   6.499   1.627   4.391 -0.8806  0.1126 -1.4782
 7258SOL     OW23223   4.162   4.315   0.683  0.5649 -0.1483  0.0319
 7258SOL    HW123224   4.252   4.283   0.694  0.4401 -0.6780 -0.4152
 7258SOL    HW223225   4.119   4.294   0.766  0.8065 -0.0590  0.1797
 7259SOL     OW23226   6.141   3.848   1.355  0.1369  0.3679  0.2556
 7259SOL    HW123227   6.089   3.836   1.276  1.8065 -0.9607 -0.6780
 7259SOL    HW223228   6.106   3.783   1.416 -0.9410  1.1858  0.5568
 7260SOL     OW23229   4.316   6.333   0.817 -0.2845  0.6736 -0.5919
 7260SOL    HW123230   4.342   6.418   0.781 -0.0268  1.2535  0.9034
 7260SOL    HW223231   4.397   6.282   0.820 -0.3081  0.6209 -0.8147
 7261SOL     OW23232   5.557   0.258   5.565 -0.2261  0.3124 -0.2944
 7261SOL    HW123233   5.549   0.335   5.621 -0.5925  0.8747 -1.1006
 7261SOL    HW223234   5.631   0.210   5.601 -0.0659  0.9795  0.2941
 7262SOL     OW23235   2.913   0.415   2.441 -0.1076 -0.5771  0.8036
 7262SOL    HW123236   2.880   0.411   2.351 -1.4575 -0.4115  1.2641
 7262SOL    HW223237   2.875   0.495   2.477  0.7793 -0.4077  1.4020
 7263SOL     OW23238   4.599   1.220   4.179 -0.6020  0.0001  0.3505
 7263SOL    HW123239   4.667   1.276   4.215 -0.9172  0.9125 -0.4383
 7263SOL    HW223240   4.626   1.203   4.089 -0.9250 -0.4581  0.3332
 7264SOL     OW23241   6.421   2.307   2.080  0.4724 -0.4266  0.2327
 7264SOL    HW123242   6.355   2.240   2.098  0.4171 -0.5674 -0.4527
 7264SOL    HW223243   6.498   2.279   2.130  0.3317 -0.7982  0.2459
 7265SOL     OW23244   2.069   4.187   2.089 -0.0005 -0.0514  0.0114
 7265SOL    HW123245   1.996   4.247   2.109 -0.2127 -0.6468  1.1009
 7265SOL    HW223246   2.087   4.202   1.996 -0.8539  0.8282 -0.0347
 7266SOL     OW23247   2.155   3.925   1.727  0.1238 -0.5839  0.1703
 7266SOL    HW123248   2.128   3.892   1.813 -1.1938  1.2518  0.5249
 7266SOL    HW223249   2.219   3.993   1.747  0.0838 -0.3998 -0.3272
 7267SOL     OW23250   2.141   6.323   0.178  0.3246 -0.4358 -0.6305
 7267SOL    HW123251   2.047   6.314   0.196  0.4573 -0.4979  0.0575
 7267SOL    HW223252   2.152   6.281   0.092 -0.1954 -0.8624 -0.4977
 7268SOL     OW23253   2.056   0.398   0.009 -0.4964 -0.2278  0.0153
 7268SOL    HW123254   2.128   0.436  -0.043 -0.1511  0.6134  1.0781
 7268SOL    HW223255   2.002   0.352  -0.056  2.7993 -3.9339 -0.4744
 7269SOL     OW23256   0.589   3.254   3.230 -0.4304 -0.3533 -0.2397
 7269SOL    HW123257   0.577   3.291   3.142  0.9660  0.9634  0.0701
 7269SOL    HW223258   0.655   3.310   3.270 -1.4659 -0.5704  1.8843
 7270SOL     OW23259   7.045   2.688   4.183 -0.3926 -0.2176 -0.0213
 7270SOL    HW123260   6.985   2.736   4.126 -0.3831  0.3867  0.4753
 7270SOL    HW223261   7.060   2.605   4.136  0.6039  0.7508 -1.5049
 7271SOL     OW23262   5.157   2.636   4.198  0.2977 -0.2364  0.1153
 7271SOL    HW123263   5.178   2.727   4.178  0.0362 -0.0492  0.6544
 7271SOL    HW223264   5.070   2.623   4.160 -0.3202  0.2027  1.3222
 7272SOL     OW23265   4.336   5.001   0.500  0.3789  0.1098  0.1409
 7272SOL    HW123266   4.317   5.034   0.588  2.2083 -0.4368  0.7852
 7272SOL    HW223267   4.277   5.051   0.443 -1.7558 -0.4042  1.7520
 7273SOL     OW23268   4.065   2.963   3.023  0.4684  0.9553 -0.2937
 7273SOL    HW123269   3.973   2.988   3.018  0.4620  0.9645 -0.1146
 7273SOL    HW223270   4.113   3.042   2.997  0.4803  1.4297  1.0753
 7274SOL     OW23271   4.790   3.165   3.706 -0.1378  0.5338  0.7245
 7274SOL    HW123272   4.776   3.086   3.654  3.8903  1.1486 -1.7139
 7274SOL    HW223273   4.717   3.223   3.681 -0.5361 -0.6809 -1.1348
 7275SOL     OW23274   2.253   3.450   6.822  0.1043 -0.3567  0.1675
 7275SOL    HW123275   2.290   3.423   6.738  1.2925  0.3052  0.4526
 7275SOL    HW223276   2.265   3.374   6.879  2.8127  0.3964  0.7759
 7276SOL     OW23277   3.833   5.374   1.171 -0.0119 -0.4376  0.1435
 7276SOL    HW123278   3.865   5.288   1.200  0.9806 -0.8601 -2.0019
 7276SOL    HW223279   3.912   5.419   1.139 -0.3131  1.7731  2.2727
 7277SOL     OW23280   2.804   3.960   0.996  0.6697 -0.5442  0.2724
 7277SOL    HW123281   2.897   3.979   0.986  0.5627 -1.1429 -3.2308
 7277SOL    HW223282   2.800   3.866   1.017  0.8733 -0.7052 -0.3843
 7278SOL     OW23283   4.889   0.750   4.777 -0.5362  0.0703  0.0491
 7278SOL    HW123284   4.795   0.731   4.777 -0.2391 -1.6082 -0.8193
 7278SOL    HW223285   4.930   0.667   4.756  1.0499  1.1922 -1.6042
 7279SOL     OW23286   4.733   1.217   7.052  0.2809  0.0070  0.2617
 7279SOL    HW123287   4.673   1.188   6.983 -1.1531  2.0093  0.5858
 7279SOL    HW223288   4.809   1.159   7.043 -0.6749 -1.0511 -1.7264
 7280SOL     OW23289   1.750   3.226   3.273  0.0343  0.7138 -0.1429
 7280SOL    HW123290   1.741   3.318   3.298 -0.6942  0.8206 -0.7899
 7280SOL    HW223291   1.661   3.196   3.258  0.3010  0.0221 -0.3918
 7281SOL     OW23292   6.097   3.851   6.114 -0.2257  0.5409  0.0615
 7281SOL    HW123293   6.019   3.815   6.155  0.1561  0.6127  0.8838
 7281SOL    HW223294   6.141   3.899   6.185  1.2672 -0.6259 -0.0162
 7282SOL     OW23295   0.457   6.374   4.944 -0.2552  0.0847 -0.3194
 7282SOL    HW123296   0.388   6.386   4.878 -0.6551 -1.1508 -0.1475
 7282SOL    HW223297   0.410   6.350   5.024  0.3408 -0.0685 -0.0085
 7283SOL     OW23298   2.267   2.353   5.154 -0.1841 -0.0723 -0.5551
 7283SOL    HW123299   2.334   2.307   5.205 -0.3339 -0.0496 -0.3387
 7283SOL    HW223300   2.186   2.337   5.201 -0.0833  1.3814  0.1958
 7284SOL     OW23301   3.666   5.778   2.681  0.1600 -0.0059 -0.3228
 7284SOL    HW123302   3.611   5.709   2.719  1.1301 -1.5689 -1.6276
 7284SOL    HW223303   3.605   5.832   2.630 -0.5930  0.0217  0.5812
 7285SOL     OW23304   6.644   4.038   2.410  0.5911 -0.0236  0.1286
 7285SOL    HW123305   6.598   4.110   2.368  0.4350  1.0519  2.0557
 7285SOL    HW223306   6.679   3.986   2.337 -1.5731  0.4654 -1.3348
 7286SOL     OW23307   1.941   6.736   4.226 -0.3511  0.2200  0.0880
 7286SOL    HW123308   1.880   6.673   4.186  0.1398 -0.5582  0.5570
 7286SOL    HW223309   1.911   6.744   4.316  0.6350 -0.6867  0.5120
 7287SOL     OW23310   5.945   5.592   3.010 -0.1375 -0.3070 -0.6490
 7287SOL    HW123311   5.956   5.530   2.937 -1.1408 -0.8796 -0.3342
 7287SOL    HW223312   5.967   5.541   3.088 -3.0581 -0.9865 -0.1647
 7288SOL     OW23313   1.859   6.495   3.132 -0.1664  0.3721  0.3483
 7288SOL    HW123314   1.875   6.414   3.085 -0.8075  0.1871  0.4360
 7288SOL    HW223315   1.887   6.564   3.072 -1.1573  0.1492 -0.4046
 7289SOL     OW23316   1.965   3.793   1.574 -1.0904  0.2979  0.1437
 7289SOL    HW123317   1.965   3.860   1.504  0.5917 -0.2425 -0.4296
 7289SOL    HW223318   2.023   3.829   1.641 -1.1471 -0.0629  0.3868
 7290SOL     OW23319   0.885   1.991   3.666 -0.0970 -0.3435 -0.6252
 7290SOL    HW123320   0.790   1.986   3.670 -0.0306 -0.7725  1.0314
 7290SOL    HW223321   0.908   1.944   3.586 -1.2984  0.3331 -1.3981
 7291SOL     OW23322   2.862   0.322   5.973  0.4925 -0.3387  0.4501
 7291SOL    HW123323   2.792   0.338   5.910  0.7628 -0.1724  0.1852
 7291SOL    HW223324   2.817   0.309   6.057  0.1877  0.6043  0.4502
 7292SOL     OW23325   7.125   4.851   5.374 -0.0504  0.0428  0.3368
 7292SOL    HW123326   7.142   4.763   5.407  0.5896  0.4142  1.0352
 7292SOL    HW223327   7.080   4.837   5.290 -0.7997 -0.9217  0.8850
 7293SOL     OW23328   5.231   0.174   2.887 -0.4844  0.2703  0.3771
 7293SOL    HW123329   5.199   0.124   2.962  1.0744  0.9233  1.5120
 7293SOL    HW223330   5.314   0.132   2.864 -0.4770  0.6875 -0.3852
 7294SOL     OW23331   6.807   5.382   1.134 -0.0636  0.3928 -0.5133
 7294SOL    HW123332   6.803   5.355   1.226  0.0883 -3.0010 -1.3818
 7294SOL    HW223333   6.900   5.385   1.114 -0.0674  1.8913 -0.4148
 7295SOL     OW23334   1.878   3.124   2.597 -0.1383 -0.1953  0.2068
 7295SOL    HW123335   1.798   3.090   2.635  0.7120 -0.6718  1.6194
 7295SOL    HW223336   1.862   3.218   2.587 -0.9439 -0.3231  0.2767
 7296SOL     OW23337   4.790   2.610   4.545  0.4012  0.3276  0.0556
 7296SOL    HW123338   4.713   2.561   4.515  1.1526 -0.9689  0.1748
 7296SOL    HW223339   4.861   2.579   4.490  0.8942  1.3859  0.0677
 7297SOL     OW23340   6.944   2.437   2.173  0.3717  0.6054  0.4952
 7297SOL    HW123341   7.026   2.482   2.190  0.4561  0.8984 -0.5970
 7297SOL    HW223342   6.941   2.366   2.237  2.5147 -0.7708 -0.8121
 7298SOL     OW23343   3.196   5.311   4.134 -0.8755  0.5478 -0.2209
 7298SOL    HW123344   3.216   5.244   4.200 -1.1773  1.0410  0.3729
 7298SOL    HW223345   3.134   5.369   4.176 -1.4652  0.5879 -1.1203
 7299SOL     OW23346   1.445   1.460   6.400  0.2138  0.0297 -0.4466
 7299SOL    HW123347   1.521   1.470   6.342  0.5342 -0.4210 -0.1100
 7299SOL    HW223348   1.473   1.396   6.466  0.6845  2.1544  1.5557
 7300SOL     OW23349   5.078   6.511   6.020  0.0023  0.0105 -0.0669
 7300SOL    HW123350   5.095   6.593   6.066 -0.0221  0.1274 -0.2645
 7300SOL    HW223351   5.144   6.507   5.951 -0.1218 -0.0358 -0.1864
 7301SOL     OW23352   0.011   0.355   0.192 -0.3381  0.1559 -0.1125
 7301SOL    HW123353   0.023   0.302   0.113  1.1629 -0.3696  0.4385
 7301SOL    HW223354  -0.056   0.419   0.168  1.5692  1.3878 -2.5472
 7302SOL     OW23355   0.668   3.413   4.143 -0.3578 -0.2021 -0.0897
 7302SOL    HW123356   0.651   3.377   4.056 -0.7450 -0.7843  0.2157
 7302SOL    HW223357   0.754   3.454   4.136 -0.0910 -0.8315 -0.5749
 7303SOL     OW23358   2.524   6.777   2.844 -0.2963  0.0120  0.1506
 7303SOL    HW123359   2.569   6.821   2.772 -0.1058 -1.8552 -0.9413
 7303SOL    HW223360   2.458   6.722   2.801 -0.1334 -1.1959  1.3797
 7304SOL     OW23361   7.117   4.431   3.675 -0.7390  0.3960 -0.0822
 7304SOL    HW123362   7.205   4.420   3.712 -0.0512 -0.6936 -1.9236
 7304SOL    HW223363   7.067   4.358   3.710 -0.8130  0.7981  0.6639
 7305SOL     OW23364   3.013   0.458   1.653 -0.1299 -0.0232  0.2885
 7305SOL    HW123365   2.997   0.367   1.679  1.0874 -0.7910 -1.4266
 7305SOL    HW223366   3.108   0.466   1.653 -0.1370  0.6218 -1.4423
 7306SOL     OW23367   6.509   0.136   1.519  0.3287 -0.0118  0.0764
 7306SOL    HW123368   6.484   0.128   1.427 -0.7657 -0.0950  0.3639
 7306SOL    HW223369   6.568   0.062   1.534 -0.9058 -1.0829 -0.1173
 7307SOL     OW23370   4.704   3.506   3.490  0.6011 -0.4692 -0.3397
 7307SOL    HW123371   4.679   3.491   3.399  0.8007  0.0748 -0.4846
 7307SOL    HW223372   4.789   3.550   3.485 -0.0345  0.8487  0.0738
 7308SOL     OW23373   2.991   4.115   2.059  0.1475  0.3073 -0.6976
 7308SOL    HW123374   2.931   4.042   2.046 -0.2066  0.5860 -0.6498
 7308SOL    HW223375   3.072   4.087   2.016 -0.1451  0.0933 -1.1176
 7309SOL     OW23376   5.409   6.626   3.439 -0.0412  0.4977 -0.3834
 7309SOL    HW123377   5.479   6.650   3.499 -0.4387  1.0766 -0.1465
 7309SOL    HW223378   5.348   6.574   3.492  0.3034 -0.1841 -0.6407
 7310SOL     OW23379   2.500   1.199   5.702 -0.2334 -0.1628  0.4286
 7310SOL    HW123380   2.549   1.139   5.758 -1.7081  0.1438  2.1192
 7310SOL    HW223381   2.465   1.144   5.632 -0.6537 -1.0823  1.3463
 7311SOL     OW23382   1.210   1.482   4.365 -0.1502  0.4248 -0.0164
 7311SOL    HW123383   1.159   1.495   4.285  0.9734  1.1482 -0.6448
 7311SOL    HW223384   1.299   1.462   4.334 -0.3775 -2.7486  0.9869
 7312SOL     OW23385   6.513   4.899   2.199 -0.0968 -0.1772 -0.1978
 7312SOL    HW123386   6.480   4.987   2.180 -0.6615 -0.4662 -0.5926
 7312SOL    HW223387   6.444   4.841   2.168  0.2380 -0.7587  0.1393
 7313SOL     OW23388   6.388   6.748   3.025 -0.7111 -0.1226 -0.6275
 7313SOL    HW123389   6.452   6.732   3.095  0.3742  0.1813 -1.5289
 7313SOL    HW223390   6.378   6.664   2.981  0.5137  0.2353 -1.6528
 7314SOL     OW23391   7.142   0.127   5.176  0.7111 -0.1773  0.7335
 7314SOL    HW123392   7.157   0.182   5.253 -1.8179  0.3453  0.9274
 7314SOL    HW223393   7.228   0.121   5.134  1.6731  1.4381  2.3233
 7315SOL     OW23394   0.374   4.455   0.445  0.5106  0.1917 -0.7588
 7315SOL    HW123395   0.289   4.498   0.448 -0.3937 -1.4863 -0.9374
 7315SOL    HW223396   0.418   4.493   0.368 -0.3705  0.5411 -1.1012
 7316SOL     OW23397   6.226   0.728   3.017 -0.6305 -0.1432  0.3751
 7316SOL    HW123398   6.235   0.717   2.922  1.6003  2.2585  0.1797
 7316SOL    HW223399   6.158   0.796   3.026 -2.3953 -1.8541  0.6972
 7317SOL     OW23400   1.265   5.887   3.718  0.1836 -0.2034  0.2125
 7317SOL    HW123401   1.218   5.803   3.716 -2.2588  1.0602  0.6498
 7317SOL    HW223402   1.215   5.944   3.661  1.3727  1.1845  0.4960
 7318SOL     OW23403   0.482   4.008   2.481 -0.1271 -0.8450  0.0903
 7318SOL    HW123404   0.560   3.952   2.477  0.9418  0.4816  1.2261
 7318SOL    HW223405   0.459   4.011   2.574 -1.2752 -0.8616 -0.1816
 7319SOL     OW23406   7.046   4.819   4.086 -0.0925 -0.3160 -0.4376
 7319SOL    HW123407   6.984   4.766   4.137 -1.7101  1.8873  0.0058
 7319SOL    HW223408   7.094   4.869   4.152 -1.0599  1.3393 -0.9253
 7320SOL     OW23409   4.542   0.865   4.039 -0.1583  0.6665 -0.3845
 7320SOL    HW123410   4.580   0.935   3.985 -1.5852  2.2649  0.6192
 7320SOL    HW223411   4.546   0.899   4.128 -0.9420 -0.5275  0.1162
 7321SOL     OW23412   3.844   5.362   3.481 -0.4675  0.4397 -0.1132
 7321SOL    HW123413   3.899   5.416   3.539 -1.0512  1.5098 -0.5232
 7321SOL    HW223414   3.758   5.405   3.483 -1.7521 -1.9316  1.5641
 7322SOL     OW23415   0.153   2.491   5.925 -0.3730 -0.0646  0.4818
 7322SOL    HW123416   0.122   2.444   6.002 -0.5061  1.2090  1.2273
 7322SOL    HW223417   0.164   2.581   5.954 -0.0852  0.3733 -0.9007
 7323SOL     OW23418   0.162   5.857   3.114  0.0604 -0.3138 -0.2948
 7323SOL    HW123419   0.189   5.926   3.174  1.3327 -0.0359 -1.1369
 7323SOL    HW223420   0.138   5.784   3.170 -0.4726  0.5167  0.5879
 7324SOL     OW23421   3.702   5.166   1.448  0.0357 -0.0415 -0.0834
 7324SOL    HW123422   3.713   5.158   1.542 -3.1522  0.2553  0.4305
 7324SOL    HW223423   3.686   5.259   1.432 -0.4032 -0.2225 -0.7701
 7325SOL     OW23424   6.482   1.701   6.822  0.6539 -0.7038 -0.1136
 7325SOL    HW123425   6.481   1.744   6.736  0.9972 -2.0389 -0.8100
 7325SOL    HW223426   6.413   1.746   6.871 -1.7705 -1.9152 -2.1413
 7326SOL     OW23427   2.449   4.618   2.610 -0.0066  0.2359  0.1465
 7326SOL    HW123428   2.395   4.540   2.625 -0.2390  0.5260  0.8509
 7326SOL    HW223429   2.413   4.684   2.669 -0.1699  1.0559 -0.8524
 7327SOL     OW23430   4.868   0.526   0.212 -0.1104  0.0676  0.1631
 7327SOL    HW123431   4.919   0.462   0.263 -0.2321 -0.1213  0.0481
 7327SOL    HW223432   4.791   0.478   0.183  0.5034 -0.1659 -1.1568
 7328SOL     OW23433   2.154   6.160   2.538 -0.1381 -0.0554  0.2807
 7328SOL    HW123434   2.194   6.078   2.508  1.2792  0.4323  0.8075
 7328SOL    HW223435   2.203   6.229   2.493 -0.9896  0.5363  0.2332
 7329SOL     OW23436   1.020   6.574   0.379  0.4023 -0.5970  0.4911
 7329SOL    HW123437   0.926   6.583   0.360  0.5785 -1.6930 -1.1163
 7329SOL    HW223438   1.062   6.640   0.323  0.8301 -2.9155 -2.1478
 7330SOL     OW23439   5.726   4.242   2.433 -0.3432 -0.5097 -1.0139
 7330SOL    HW123440   5.784   4.309   2.399  0.4772 -1.3613 -1.3432
 7330SOL    HW223441   5.750   4.234   2.526  0.2057 -0.9940 -1.1947
 7331SOL     OW23442   2.776   2.414   3.699  0.5417  0.2091 -0.4722
 7331SOL    HW123443   2.742   2.468   3.627  0.9321 -1.8591 -2.2971
 7331SOL    HW223444   2.863   2.388   3.671  0.6149 -0.8311  0.6485
 7332SOL     OW23445   5.863   7.121   3.736  0.4482 -0.5867  0.0780
 7332SOL    HW123446   5.813   7.097   3.814  0.7019 -0.5241  0.2604
 7332SOL    HW223447   5.803   7.175   3.684  0.0601 -1.1596 -0.0763
 7333SOL     OW23448   0.055   3.872   0.621 -0.7540 -0.0761 -0.0212
 7333SOL    HW123449   0.107   3.931   0.676 -0.2411  1.1767 -1.7961
 7333SOL    HW223450   0.103   3.789   0.625  0.0461  0.3887  0.3156
 7334SOL     OW23451   1.647   5.433   3.034  0.0530 -0.4957 -0.4694
 7334SOL    HW123452   1.672   5.370   2.966 -1.6906 -0.8468 -0.8221
 7334SOL    HW223453   1.638   5.516   2.986  1.0756 -0.2294 -0.2311
 7335SOL     OW23454   0.729   4.175   3.115  0.3910 -0.3035 -0.2078
 7335SOL    HW123455   0.796   4.189   3.182  0.2917 -0.0873 -0.1550
 7335SOL    HW223456   0.716   4.080   3.114 -0.0000 -0.2618  0.4563
 7336SOL     OW23457   3.859   4.810   5.207 -0.3731 -0.7618 -0.5913
 7336SOL    HW123458   3.832   4.719   5.197 -1.4032 -0.6187  0.6165
 7336SOL    HW223459   3.869   4.822   5.302 -2.6299  0.9897 -0.4790
 7337SOL     OW23460   2.607   0.224   0.905 -0.2035  0.3727 -0.1991
 7337SOL    HW123461   2.676   0.162   0.929 -0.0236  0.6037 -0.1094
 7337SOL    HW223462   2.654   0.307   0.891 -0.6672  0.9944  1.6574
 7338SOL     OW23463   1.241   0.405   0.868 -0.7830  0.3998  0.1852
 7338SOL    HW123464   1.206   0.324   0.904 -1.9453  1.1396  0.7748
 7338SOL    HW223465   1.184   0.473   0.902  2.0291  1.8815  2.4271
 7339SOL     OW23466   2.458   4.472   4.870  0.2597  0.6101  0.0737
 7339SOL    HW123467   2.425   4.544   4.925 -0.8521  0.6605 -0.6337
 7339SOL    HW223468   2.380   4.436   4.828  1.0099  0.1368 -0.9576
 7340SOL     OW23469   3.503   3.384   3.918 -0.1414  0.3896 -0.1145
 7340SOL    HW123470   3.507   3.289   3.911 -2.0560  0.3276 -1.2963
 7340SOL    HW223471   3.423   3.401   3.968 -0.9136  1.3537 -1.5838
 7341SOL     OW23472   5.244   2.945   7.031 -0.1291  0.2271  0.2555
 7341SOL    HW123473   5.333   2.921   7.007  0.2914  1.7430  0.2153
 7341SOL    HW223474   5.240   2.931   7.126 -0.2715 -1.0764  0.0753
 7342SOL     OW23475   0.608   0.773   5.045 -0.6465  0.1013 -0.2203
 7342SOL    HW123476   0.688   0.824   5.032 -0.3742  0.3449  2.0022
 7342SOL    HW223477   0.619   0.733   5.131 -2.1850 -1.2591 -0.6137
 7343SOL     OW23478   4.863   6.557   7.128  0.0396  0.1940  0.0507
 7343SOL    HW123479   4.837   6.467   7.150 -1.1923  0.5366  0.0983
 7343SOL    HW223480   4.944   6.547   7.079 -0.2300 -0.9761 -0.1992
 7344SOL     OW23481   1.238   6.001   0.059  0.3525 -0.1483 -0.0313
 7344SOL    HW123482   1.321   5.968   0.091  1.5779  0.6047 -2.2332
 7344SOL    HW223483   1.186   5.923   0.040  0.2067 -0.6116  2.0735
 7345SOL     OW23484   5.798   5.459   4.465 -0.0215 -0.0086 -0.0609
 7345SOL    HW123485   5.747   5.529   4.506 -0.0822 -0.5483  0.8006
 7345SOL    HW223486   5.732   5.404   4.421  0.0046  0.3245 -0.5312
 7346SOL     OW23487   1.281   2.059   1.405 -0.1939  0.0127  0.4691
 7346SOL    HW123488   1.238   1.995   1.462  1.6599 -1.0470  0.7843
 7346SOL    HW223489   1.297   2.011   1.324  2.3927 -0.4724  1.1586
 7347SOL     OW23490   5.327   0.590   5.617  0.1394 -0.1197  0.3679
 7347SOL    HW123491   5.289   0.677   5.605  2.0711  0.5867 -1.1477
 7347SOL    HW223492   5.409   0.592   5.566  0.5910 -2.5902  0.8657
 7348SOL     OW23493   6.862   3.410   7.068 -0.4656  0.1033  0.2972
 7348SOL    HW123494   6.855   3.401   6.973  0.5055  0.8662  0.1426
 7348SOL    HW223495   6.886   3.501   7.082  1.6117 -0.5133  1.1289
 7349SOL     OW23496   4.457   2.302   1.609 -0.3747  0.4687  0.1548
 7349SOL    HW123497   4.465   2.248   1.688 -0.3176 -0.1792 -0.2816
 7349SOL    HW223498   4.419   2.384   1.640 -1.1841 -0.0964  0.7205
 7350SOL     OW23499   6.539   4.009   0.898 -0.3774  0.2114 -0.2724
 7350SOL    HW123500   6.565   4.027   0.988  0.1468  0.9592 -0.5622
 7350SOL    HW223501   6.563   4.088   0.850 -1.2326  0.0772 -0.9543
 7351SOL     OW23502   2.811   6.401   3.968 -0.3787  0.2416 -0.1416
 7351SOL    HW123503   2.825   6.308   3.984 -1.6531  0.2432  1.2367
 7351SOL    HW223504   2.880   6.444   4.017 -1.0624  0.0534  1.0391
 7352SOL     OW23505   4.092   6.398   2.906  0.1293  0.3234 -0.2656
 7352SOL    HW123506   4.096   6.413   3.000 -0.3993 -0.1952 -0.1529
 7352SOL    HW223507   4.123   6.479   2.867  1.2449  0.2142  0.3635
 7353SOL     OW23508   6.663   2.116   5.905  0.4576  0.1530 -0.4925
 7353SOL    HW123509   6.608   2.063   5.963  1.1833 -2.6382 -2.1825
 7353SOL    HW223510   6.611   2.128   5.826  1.2793 -0.2729 -1.1098
 7354SOL     OW23511   5.554   5.468   6.718 -0.2346 -0.4098 -0.4137
 7354SOL    HW123512   5.471   5.444   6.678 -0.2685 -1.8835  0.4550
 7354SOL    HW223513   5.548   5.436   6.808  0.4940  1.2954  0.2967
 7355SOL     OW23514   0.123   6.855   3.713 -0.5423  0.1182  0.3509
 7355SOL    HW123515   0.120   6.835   3.807  1.1556  0.4035  0.4984
 7355SOL    HW223516   0.146   6.948   3.709  0.7919 -0.2174 -0.3187
 7356SOL     OW23517   3.417   6.290   1.614  0.2765 -0.4249  0.3649
 7356SOL    HW123518   3.419   6.199   1.587  0.2221 -0.7868  1.5424
 7356SOL    HW223519   3.509   6.314   1.625  0.2957 -0.2981 -0.0526
 7357SOL     OW23520   5.420   0.782   5.220 -0.2208 -0.0827  0.1481
 7357SOL    HW123521   5.488   0.740   5.167 -1.1335  0.7420 -1.7235
 7357SOL    HW223522   5.464   0.799   5.304  1.7695  0.0519 -0.8501
 7358SOL     OW23523   0.714   2.618   6.952  0.2421  0.4347  0.6845
 7358SOL    HW123524   0.635   2.570   6.927  0.0322  1.0801  0.0688
 7358SOL    HW223525   0.683   2.707   6.969  0.9698  0.9420 -0.5142
 7359SOL     OW23526   1.627   4.151   0.284 -0.3580 -0.3126 -0.3312
 7359SOL    HW123527   1.673   4.090   0.226  0.3435 -0.7344  0.6401
 7359SOL    HW223528   1.566   4.096   0.332  1.4032 -0.6093  1.7264
 7360SOL     OW23529   0.642   6.018   4.207  0.2741 -0.0288  0.5614
 7360SOL    HW123530   0.635   6.111   4.187  0.9044  0.1504  1.1758
 7360SOL    HW223531   0.554   5.983   4.188  0.2186  0.5546 -0.3008
 7361SOL     OW23532   6.778   5.016   0.852  0.4197 -0.6778 -0.0719
 7361SOL    HW123533   6.771   5.049   0.942  0.8355 -2.1248  0.5234
 7361SOL    HW223534   6.708   5.061   0.805 -0.3658 -0.5266  1.1759
 7362SOL     OW23535   4.733   5.845   4.074  0.0988 -0.5378 -0.0916
 7362SOL    HW123536   4.725   5.835   4.169 -3.3370  0.4106 -0.1364
 7362SOL    HW223537   4.768   5.934   4.063  0.9630 -0.8214  0.2452
 7363SOL     OW23538   4.883   3.121   6.427  0.3019  0.4815 -0.1707
 7363SOL    HW123539   4.896   3.046   6.485  2.4404  0.6539 -0.3677
 7363SOL    HW223540   4.854   3.083   6.345 -1.6727  0.1545  0.6088
 7364SOL     OW23541   2.377   6.159   4.558  0.1347  0.1372 -0.3192
 7364SOL    HW123542   2.394   6.066   4.544 -0.4056 -0.2232  1.1535
 7364SOL    HW223543   2.457   6.203   4.530 -0.4816 -0.4901 -3.3904
 7365SOL     OW23544   6.786   3.611   3.061  0.4475  0.3041 -0.1056
 7365SOL    HW123545   6.841   3.627   3.138 -0.7446 -0.8591  1.0479
 7365SOL    HW223546   6.725   3.543   3.089 -1.2768  1.1967 -1.4757
 7366SOL     OW23547   1.602   0.040   2.066  0.2880 -0.3115 -0.0753
 7366SOL    HW123548   1.571   0.129   2.049  0.1362 -0.2679  0.3980
 7366SOL    HW223549   1.676   0.028   2.008 -1.6714 -1.0510 -2.6114
 7367SOL     OW23550   0.686   2.277   4.642  0.1559 -0.0506 -0.3008
 7367SOL    HW123551   0.692   2.181   4.637  2.6402  0.0553 -0.5402
 7367SOL    HW223552   0.743   2.301   4.714 -0.6129  1.2613 -0.1025
 7368SOL     OW23553   4.482   0.877   0.138 -0.7471  0.2361  0.3465
 7368SOL    HW123554   4.559   0.911   0.184 -1.2213  0.8771  0.6794
 7368SOL    HW223555   4.462   0.794   0.182  0.3886 -0.4829 -0.4364
 7369SOL     OW23556   5.302   2.343   0.224 -0.1615 -0.2722 -0.2836
 7369SOL    HW123557   5.262   2.429   0.208  0.6386  0.2580  0.4297
 7369SOL    HW223558   5.295   2.331   0.319  1.8776  0.1470 -0.0165
 7370SOL     OW23559   1.132   0.797   6.617  0.0818 -0.0115  0.0913
 7370SOL    HW123560   1.076   0.762   6.686  0.2329  0.6999  0.5774
 7370SOL    HW223561   1.221   0.774   6.643  0.2846  1.6814  0.9991
 7371SOL     OW23562   2.606   3.068   5.922 -0.0395 -0.1003  0.3828
 7371SOL    HW123563   2.603   2.980   5.961 -0.6553 -1.1785 -1.9024
 7371SOL    HW223564   2.693   3.073   5.882 -0.0926  0.2603  0.3154
 7372SOL     OW23565   6.904   3.646   6.758  0.3729  0.3022  0.4502
 7372SOL    HW123566   6.922   3.658   6.851  3.6051 -0.4764  0.0398
 7372SOL    HW223567   6.884   3.733   6.726 -0.8943  0.5638  1.8492
 7373SOL     OW23568   5.555   3.625   0.267 -0.7763  0.2804  0.4051
 7373SOL    HW123569   5.588   3.704   0.226 -1.5740  0.3475 -0.1407
 7373SOL    HW223570   5.494   3.656   0.335 -3.1404  0.1900 -1.5237
 7374SOL     OW23571   6.780   4.345   6.654 -0.0488  0.3410 -0.4053
 7374SOL    HW123572   6.738   4.423   6.617  0.9913  1.9008  1.4859
 7374SOL    HW223573   6.765   4.352   6.748 -0.3444 -2.0663 -0.2007
 7375SOL     OW23574   4.605   3.567   5.338 -0.0799  0.1598 -0.3967
 7375SOL    HW123575   4.539   3.526   5.394  0.6829 -0.3251  0.1790
 7375SOL    HW223576   4.577   3.658   5.329  1.2970  1.1378  3.3255
 7376SOL     OW23577   2.924   0.006   0.687  0.1659 -0.1756  0.0201
 7376SOL    HW123578   2.893  -0.048   0.759 -1.1918  0.0651 -0.3596
 7376SOL    HW223579   2.877  -0.026   0.610  0.9963  0.0967 -0.6263
 7377SOL     OW23580   6.335   5.855   1.742  0.4393  0.4702 -0.0010
 7377SOL    HW123581   6.417   5.824   1.780 -0.2567 -0.7156  0.5705
 7377SOL    HW223582   6.268   5.799   1.780 -0.6894  1.6602 -0.1770
 7378SOL     OW23583   6.845   0.279   2.057  0.2509  0.1272  0.0167
 7378SOL    HW123584   6.768   0.228   2.032 -1.6809  0.5943  4.0963
 7378SOL    HW223585   6.911   0.214   2.080  0.3819 -0.3149 -1.5217
 7379SOL     OW23586   2.879   3.560   5.199 -0.0111  0.3550 -0.6269
 7379SOL    HW123587   2.838   3.639   5.163  0.2338  0.8931  0.2434
 7379SOL    HW223588   2.814   3.524   5.259 -0.0485 -0.0118 -0.8803
 7380SOL     OW23589   0.964   3.828   3.124  0.1732  0.0335 -0.2111
 7380SOL    HW123590   0.940   3.741   3.093 -2.4929  1.3229 -2.1651
 7380SOL    HW223591   1.038   3.854   3.069 -0.0009 -0.4259 -0.6738
 7381SOL     OW23592   6.925   5.645   6.936  0.6572 -0.3261  0.8806
 7381SOL    HW123593   6.989   5.594   6.987  0.0701 -0.8177  1.1442
 7381SOL    HW223594   6.857   5.581   6.914  0.7385 -0.0350 -0.2376
 7382SOL     OW23595   0.101   2.631   6.354  0.5307 -0.1650  0.7455
 7382SOL    HW123596   0.074   2.570   6.285 -0.2628  1.6162 -0.6317
 7382SOL    HW223597   0.018   2.663   6.391  0.8938  0.5599  0.9539
 7383SOL     OW23598   3.517   5.980   1.773 -0.8660 -0.2578 -0.5055
 7383SOL    HW123599   3.493   5.934   1.853  0.7453 -1.7208 -0.8065
 7383SOL    HW223600   3.606   6.011   1.789 -1.3740  1.5291 -0.8804
 7384SOL     OW23601   3.600   0.114   1.611  0.5027  0.4203  0.0445
 7384SOL    HW123602   3.535   0.144   1.547  1.4069  1.4205 -0.4417
 7384SOL    HW223603   3.549   0.096   1.690 -0.4497  0.5603 -0.5245
 7385SOL     OW23604   0.988   2.142   5.797  0.4568 -0.4270  0.6424
 7385SOL    HW123605   0.937   2.093   5.733 -0.0622  1.6450 -0.6346
 7385SOL    HW223606   1.079   2.115   5.781  0.1038 -1.6790  0.6727
 7386SOL     OW23607   5.662   4.150   1.315  0.3628 -0.2457  0.4062
 7386SOL    HW123608   5.642   4.224   1.373 -0.6616 -0.8518  0.8565
 7386SOL    HW223609   5.598   4.158   1.244  0.9407 -0.1015 -0.1050
 7387SOL     OW23610   5.921   6.289   6.228  0.0613  0.3972 -0.1887
 7387SOL    HW123611   5.877   6.373   6.235 -1.2419 -0.4172  2.5839
 7387SOL    HW223612   5.859   6.233   6.181 -0.5633  0.1060  0.9504
 7388SOL     OW23613   6.335   3.933   5.869 -0.8682 -0.9327  0.2818
 7388SOL    HW123614   6.344   3.847   5.909 -2.9387 -0.4003  2.0508
 7388SOL    HW223615   6.244   3.956   5.882 -0.7561  0.8729 -1.6124
 7389SOL     OW23616   4.441   0.497   2.282 -0.6222  0.4224  0.0414
 7389SOL    HW123617   4.484   0.466   2.361  0.5142  0.7565 -0.4209
 7389SOL    HW223618   4.348   0.489   2.300 -0.3732 -0.7509  0.9087
 7390SOL     OW23619   7.035   5.580   1.878 -0.6735  0.3442 -0.0914
 7390SOL    HW123620   7.083   5.661   1.899  0.4846 -0.1378 -0.7907
 7390SOL    HW223621   7.086   5.510   1.919 -1.2239 -0.1170 -0.1794
 7391SOL     OW23622   1.393   3.371   1.401  0.3127 -0.3418 -0.1773
 7391SOL    HW123623   1.303   3.342   1.416  0.4237 -0.2065  0.8704
 7391SOL    HW223624   1.418   3.413   1.484  1.3656 -0.4436 -0.4294
 7392SOL     OW23625   4.892   0.556   4.324 -0.1475 -0.5477 -0.0184
 7392SOL    HW123626   4.820   0.547   4.387 -1.1670 -0.5504 -1.1494
 7392SOL    HW223627   4.970   0.534   4.375 -1.0494 -1.6558  0.9664
 7393SOL     OW23628   6.395   1.537   1.444 -0.4162 -0.7910 -0.2674
 7393SOL    HW123629   6.469   1.567   1.392 -1.9726  0.4316 -1.9087
 7393SOL    HW223630   6.427   1.459   1.489  1.9857 -0.0228 -0.5012
 7394SOL     OW23631   4.065   4.095   1.391 -0.4808 -0.0474  0.6518
 7394SOL    HW123632   3.988   4.047   1.423  0.9925 -0.5566  3.8995
 7394SOL    HW223633   4.137   4.032   1.395  0.6549  1.1921  0.6172
 7395SOL     OW23634   5.285   7.052   1.293  0.4523 -0.0812  0.4984
 7395SOL    HW123635   5.237   7.015   1.367 -0.8610 -1.1225 -0.8123
 7395SOL    HW223636   5.218   7.099   1.243  1.3717  0.8446  0.1094
 7396SOL     OW23637   1.702   2.820   0.141  0.0132 -0.4173 -0.0229
 7396SOL    HW123638   1.681   2.795   0.051 -1.6570  0.8599 -0.0376
 7396SOL    HW223639   1.704   2.737   0.189 -0.8155 -0.9764 -0.9118
 7397SOL     OW23640   0.991   1.931   6.222 -0.4369 -0.6895 -0.0971
 7397SOL    HW123641   0.901   1.964   6.231  0.2793  2.0639 -1.6324
 7397SOL    HW223642   1.029   1.987   6.154  2.9763 -0.5873  1.7162
 7398SOL     OW23643   5.112   4.878   3.731 -0.0575 -0.3894  0.4575
 7398SOL    HW123644   5.060   4.815   3.682  0.6848  0.1148 -1.0352
 7398SOL    HW223645   5.141   4.942   3.666  1.2977  0.0978  1.4734
 7399SOL     OW23646   1.822   1.662   5.764  0.2131  0.3769  0.1791
 7399SOL    HW123647   1.775   1.609   5.700 -0.9540  1.5599  0.0175
 7399SOL    HW223648   1.780   1.748   5.760  0.0062  0.4524  2.6336
 7400SOL     OW23649   4.615   3.108   2.879 -0.1106 -0.3111  0.4340
 7400SOL    HW123650   4.568   3.190   2.893 -0.5140 -0.5414  0.4400
 7400SOL    HW223651   4.546   3.041   2.874  0.2029 -0.6226  0.2351
 7401SOL     OW23652   6.512   0.919   2.120  0.7403  0.5371  0.0269
 7401SOL    HW123653   6.462   0.846   2.084  1.2239  0.2586 -0.0902
 7401SOL    HW223654   6.469   0.997   2.085 -0.1654  0.3323  0.6681
 7402SOL     OW23655   6.566   5.196   5.338 -0.3591  0.1627  0.7090
 7402SOL    HW123656   6.554   5.197   5.433 -1.4109 -0.8730  0.6135
 7402SOL    HW223657   6.481   5.221   5.303 -0.0445  0.3028  0.0257
 7403SOL     OW23658   0.588   0.381   0.637  0.0637 -0.8120 -0.5467
 7403SOL    HW123659   0.538   0.448   0.682  1.6159 -0.2770  0.4665
 7403SOL    HW223660   0.562   0.388   0.545 -0.1687  0.8319 -0.3726
 7404SOL     OW23661   2.087   2.554   2.542  0.0850  0.2365  0.5477
 7404SOL    HW123662   2.147   2.521   2.609 -1.5898 -0.4964  1.7601
 7404SOL    HW223663   1.999   2.539   2.579 -0.8867  0.2314 -1.6105
 7405SOL     OW23664   3.948   5.818   4.655  0.1039 -0.3862 -0.5424
 7405SOL    HW123665   3.984   5.804   4.743 -1.8601  1.4342  0.6512
 7405SOL    HW223666   3.996   5.756   4.600  1.1760 -1.8627  1.8451
 7406SOL     OW23667   6.456   1.512   6.144 -0.2464 -0.4097 -0.4484
 7406SOL    HW123668   6.445   1.479   6.233  0.5818 -0.7450 -0.4546
 7406SOL    HW223669   6.405   1.453   6.089 -0.3842 -0.4836 -0.2395
 7407SOL     OW23670   4.442   4.914   6.112  0.0306  0.0394  0.1531
 7407SOL    HW123671   4.465   4.946   6.026 -1.6830  1.5537  0.1962
 7407SOL    HW223672   4.520   4.868   6.143  0.7911 -0.2298 -2.0312
 7408SOL     OW23673   5.158   0.642   5.277  0.1666  0.1181  0.1185
 7408SOL    HW123674   5.131   0.610   5.191  0.9116 -1.2104  0.3503
 7408SOL    HW223675   5.247   0.674   5.264 -0.2814  1.4157  0.0711
 7409SOL     OW23676   5.094   0.728   6.238 -0.4005 -0.2196  0.3363
 7409SOL    HW123677   5.004   0.746   6.210 -0.4884 -0.8949  0.1626
 7409SOL    HW223678   5.114   0.642   6.201  1.1507  0.8818 -1.6434
 7410SOL     OW23679   0.411   1.633   2.260  0.1435 -0.2240 -0.1873
 7410SOL    HW123680   0.379   1.621   2.170  0.6180 -1.4054 -0.2235
 7410SOL    HW223681   0.343   1.594   2.315 -0.2566  0.7088 -0.0057
 7411SOL     OW23682   6.611   1.893   4.759  0.1409 -0.1457  0.3855
 7411SOL    HW123683   6.527   1.856   4.732 -0.0108  0.1740  0.4046
 7411SOL    HW223684   6.587   1.968   4.814  0.4511 -1.3342  2.2088
 7412SOL     OW23685   6.851   1.782   0.458  0.2997  0.5566  0.1763
 7412SOL    HW123686   6.766   1.741   0.468 -0.5274  2.1895  0.1474
 7412SOL    HW223687   6.884   1.792   0.548  1.6724 -2.3936  0.0907
 7413SOL     OW23688   3.596   2.985   1.618 -0.2414 -0.4251 -0.4734
 7413SOL    HW123689   3.688   2.998   1.595 -0.6048  2.4558 -0.6890
 7413SOL    HW223690   3.550   2.986   1.534 -0.6347  0.1126 -0.2606
 7414SOL     OW23691   2.654   5.752   2.153 -0.7966  0.2745 -0.5188
 7414SOL    HW123692   2.623   5.702   2.229 -2.3236 -0.0095 -1.3009
 7414SOL    HW223693   2.587   5.739   2.086 -0.0945  1.5373 -1.5106
 7415SOL     OW23694   2.148   4.390   3.112 -0.2598 -0.3205 -0.3015
 7415SOL    HW123695   2.130   4.481   3.135  0.7662  0.1736 -1.3374
 7415SOL    HW223696   2.070   4.361   3.064 -0.7548 -0.1272  0.3696
 7416SOL     OW23697   4.317   6.208   6.060  0.0333  0.6327  1.0866
 7416SOL    HW123698   4.284   6.159   5.985 -0.6778  0.0497  1.7652
 7416SOL    HW223699   4.335   6.295   6.024 -2.5046  1.0884  0.6856
 7417SOL     OW23700   6.254   2.171   2.787  0.4255 -0.4233  0.1610
 7417SOL    HW123701   6.306   2.245   2.818  0.9576 -1.4548  1.8864
 7417SOL    HW223702   6.294   2.095   2.829 -1.9748 -1.3541  0.9084
 7418SOL     OW23703   3.285   5.290   6.411  0.1443 -0.0055  0.0766
 7418SOL    HW123704   3.298   5.305   6.317  1.4695 -0.0694  0.2449
 7418SOL    HW223705   3.213   5.227   6.415  0.9585 -1.0366 -0.9464
 7419SOL     OW23706   6.448   3.630   6.489  0.4833 -0.2647  0.7287
 7419SOL    HW123707   6.365   3.669   6.516 -0.8421 -2.2757 -0.1784
 7419SOL    HW223708   6.508   3.704   6.478 -0.3007  1.0762  4.1292
 7420SOL     OW23709   5.817   6.396   1.694 -0.6987  0.2003 -0.0973
 7420SOL    HW123710   5.853   6.461   1.634  0.9412  0.3486  0.9793
 7420SOL    HW223711   5.772   6.449   1.761 -0.1670  0.1948  0.2711
 7421SOL     OW23712   2.978   4.239   1.787  0.0915 -0.6577 -0.0759
 7421SOL    HW123713   2.923   4.290   1.727  1.1056  1.5301  0.7216
 7421SOL    HW223714   2.964   4.148   1.762 -2.7887 -0.1092 -0.7940
 7422SOL     OW23715   1.820   5.863   1.179  0.1430  0.3819  0.3138
 7422SOL    HW123716   1.772   5.913   1.113 -0.6181  2.0864  2.0442
 7422SOL    HW223717   1.751   5.820   1.230  0.6228  0.1720  0.7922
 7423SOL     OW23718   6.673   2.560   4.137  0.0013  0.0951 -0.4461
 7423SOL    HW123719   6.725   2.574   4.058  0.9408  1.4268  0.3525
 7423SOL    HW223720   6.738   2.554   4.207 -0.8517 -0.0008  0.3497
 7424SOL     OW23721   2.597   4.700   6.003 -0.4861  0.1695  0.0503
 7424SOL    HW123722   2.512   4.697   5.958  0.2147 -2.5024 -1.3569
 7424SOL    HW223723   2.583   4.650   6.084 -0.5623  0.9060  0.5026
 7425SOL     OW23724   6.435   6.136   5.557  0.4385  0.8436 -0.2360
 7425SOL    HW123725   6.443   6.093   5.642  0.1196 -0.9124 -1.0379
 7425SOL    HW223726   6.401   6.068   5.499 -2.8768  2.9471 -1.0168
 7426SOL     OW23727   6.057   5.376   6.679  0.0974 -0.3486  0.5352
 7426SOL    HW123728   6.052   5.467   6.651 -0.5287  0.3764  2.7845
 7426SOL    HW223729   6.151   5.357   6.683  0.2115 -0.3371 -1.4207
 7427SOL     OW23730   4.497   5.746   1.060  0.0379 -0.0871  0.5044
 7427SOL    HW123731   4.562   5.784   1.000  0.6589 -0.4207  0.9526
 7427SOL    HW223732   4.442   5.819   1.086  1.5793  0.6691  1.8303
 7428SOL     OW23733   2.573   0.750   2.998 -0.3091 -0.2321  0.5879
 7428SOL    HW123734   2.665   0.728   3.012 -0.4567 -0.8644  0.5678
 7428SOL    HW223735   2.542   0.684   2.937 -0.6740  0.2283  0.2680
 7429SOL     OW23736   3.697   4.130   2.570  0.5457  0.2919  0.4583
 7429SOL    HW123737   3.752   4.053   2.584 -0.0517 -0.0813  0.7628
 7429SOL    HW223738   3.675   4.160   2.658  0.9747  0.9657  0.3494
 7430SOL     OW23739   5.818   6.314   0.170 -0.0801  0.0060  0.7694
 7430SOL    HW123740   5.842   6.243   0.230  2.6206  0.0463 -0.1450
 7430SOL    HW223741   5.865   6.391   0.203 -1.3358  0.9047  0.5559
 7431SOL     OW23742   1.612   0.664   3.316  0.8215  0.1848 -0.3301
 7431SOL    HW123743   1.704   0.680   3.337  0.5809 -0.8358  1.7441
 7431SOL    HW223744   1.565   0.737   3.354  0.7444  0.8042 -1.5507
 7432SOL     OW23745   5.086   6.138   3.179  0.9900 -0.1056  0.4382
 7432SOL    HW123746   5.137   6.123   3.259  1.5874  0.1986  0.1213
 7432SOL    HW223747   5.149   6.172   3.116  0.2498  0.9482  0.2415
 7433SOL     OW23748   1.659   5.882   3.309 -0.0885  0.1942  0.3890
 7433SOL    HW123749   1.608   5.929   3.375  1.1903 -0.8494  2.2190
 7433SOL    HW223750   1.646   5.789   3.330  0.9795 -0.1366 -0.3199
 7434SOL     OW23751   0.830   2.709   0.820  0.1811 -0.0061  0.3775
 7434SOL    HW123752   0.883   2.686   0.743 -0.2816 -2.0373  0.6259
 7434SOL    HW223753   0.885   2.687   0.895  0.8969  2.5854  0.7337
 7435SOL     OW23754   1.185   6.194   3.084  0.2452  1.0022  0.2535
 7435SOL    HW123755   1.270   6.227   3.055 -0.1625  1.6364 -0.2529
 7435SOL    HW223756   1.130   6.272   3.090  0.4771  1.0586  3.5010
 7436SOL     OW23757   3.806   2.122   0.520 -0.2618 -0.3401  0.1058
 7436SOL    HW123758   3.819   2.194   0.458  2.9935  0.2140  1.1957
 7436SOL    HW223759   3.782   2.165   0.602  1.6187 -0.3984  0.7423
 7437SOL     OW23760   2.238   5.053   2.405  0.3881 -0.4676 -0.4172
 7437SOL    HW123761   2.231   5.082   2.314  0.5399  0.2242 -0.2171
 7437SOL    HW223762   2.304   4.984   2.403  0.1025 -0.7332 -0.8900
 7438SOL     OW23763   1.620   4.920   2.927 -0.3602  0.4655 -0.5895
 7438SOL    HW123764   1.568   4.977   2.984  1.6547  1.6188  0.1910
 7438SOL    HW223765   1.563   4.845   2.911 -2.2470  1.6302  0.2110
 7439SOL     OW23766   3.171   1.394   6.246 -0.3281  0.6887  0.0861
 7439SOL    HW123767   3.151   1.414   6.337 -0.0235  1.9996 -0.1149
 7439SOL    HW223768   3.097   1.428   6.196 -0.4979 -0.0275 -0.1630
 7440SOL     OW23769   5.303   6.357   2.064  0.5734 -0.1694 -0.1512
 7440SOL    HW123770   5.227   6.350   2.007  1.1011 -0.5432 -0.8169
 7440SOL    HW223771   5.353   6.277   2.048  1.2474  0.1990  0.0717
 7441SOL     OW23772   3.725   1.328   1.525  0.1487 -0.4779  0.3174
 7441SOL    HW123773   3.720   1.418   1.558  1.5269  0.4073 -1.6529
 7441SOL    HW223774   3.650   1.320   1.466  0.5663 -0.2476 -0.2599
 7442SOL     OW23775   6.944   2.576   6.898 -0.3427  0.0060  0.2904
 7442SOL    HW123776   6.907   2.622   6.974 -1.7661 -2.3696  1.1454
 7442SOL    HW223777   7.036   2.564   6.920 -0.2155  1.3653  0.5719
 7443SOL     OW23778   4.044   3.900   1.624  0.3728  0.0284 -0.2629
 7443SOL    HW123779   3.961   3.923   1.583  0.5078  0.8290 -0.1052
 7443SOL    HW223780   4.026   3.820   1.673 -0.2072 -0.0121 -0.5444
 7444SOL     OW23781   4.129   7.143   0.295 -0.5499  0.1147 -0.3239
 7444SOL    HW123782   4.219   7.158   0.323 -0.1707 -0.8507 -0.9858
 7444SOL    HW223783   4.091   7.230   0.289  0.9304  0.6941 -1.9879
 7445SOL     OW23784   3.908   5.527   5.150  0.4438 -0.0594 -0.0113
 7445SOL    HW123785   3.916   5.434   5.129 -0.4695  0.1161 -1.3017
 7445SOL    HW223786   3.869   5.529   5.237  0.6366 -0.8824  0.1006
 7446SOL     OW23787   4.950   4.329   3.309 -0.1363 -0.1223 -0.2000
 7446SOL    HW123788   4.947   4.395   3.241 -0.3474 -0.8613 -0.9164
 7446SOL    HW223789   4.926   4.247   3.266 -0.6200 -0.5471  0.8312
 7447SOL     OW23790   7.045   1.034   5.828  0.0016 -0.0952  0.4136
 7447SOL    HW123791   6.956   1.043   5.793  0.5416  0.6968 -0.8222
 7447SOL    HW223792   7.102   1.062   5.756  1.2378 -0.1045  1.3628
 7448SOL     OW23793   2.040   5.513   2.603 -0.5567  0.6863 -0.2693
 7448SOL    HW123794   1.984   5.440   2.630 -0.1997 -0.7170 -2.9346
 7448SOL    HW223795   2.102   5.525   2.675 -1.9764 -0.1522  1.1573
 7449SOL     OW23796   3.715   5.737   1.039  0.0123 -0.5742  0.2194
 7449SOL    HW123797   3.634   5.696   1.071  0.0409 -1.4087 -0.7364
 7449SOL    HW223798   3.704   5.740   0.944 -0.1804  2.1043  0.2626
 7450SOL     OW23799   3.883   2.980   0.630 -0.1311 -0.0803 -0.0624
 7450SOL    HW123800   3.904   2.891   0.657 -0.2964 -0.2412 -0.4679
 7450SOL    HW223801   3.792   2.976   0.601  0.2231 -0.0444 -1.2152
 7451SOL     OW23802   6.043   3.113   7.131  0.0303 -0.0066  0.1852
 7451SOL    HW123803   6.134   3.087   7.114 -0.0763  0.4314 -1.1939
 7451SOL    HW223804   6.042   3.207   7.113 -0.4825  0.1894  1.1864
 7452SOL     OW23805   6.623   0.057   4.659 -0.5954 -0.3415  0.4346
 7452SOL    HW123806   6.603   0.130   4.600  0.0485 -0.4335  0.0867
 7452SOL    HW223807   6.590   0.085   4.744 -1.1926 -0.0405  0.1101
 7453SOL     OW23808   1.962   3.372   0.016  0.4514 -0.4162  0.3346
 7453SOL    HW123809   1.922   3.454  -0.014  1.2271 -0.1885 -0.1021
 7453SOL    HW223810   1.903   3.304  -0.015  0.5513 -0.0994 -0.5653
 7454SOL     OW23811   0.740   7.118   6.117 -0.5188 -0.0781 -0.7483
 7454SOL    HW123812   0.694   7.118   6.201 -0.7595  0.0820 -0.8800
 7454SOL    HW223813   0.700   7.189   6.067  1.4824  1.6765  0.0110
 7455SOL     OW23814   0.626   0.308   6.672  0.2403 -0.6138 -0.4018
 7455SOL    HW123815   0.540   0.339   6.698  0.6192 -0.8709  1.2539
 7455SOL    HW223816   0.679   0.388   6.665 -0.1461 -0.4389 -1.5950
 7456SOL     OW23817   0.135   3.070   3.805 -0.4251 -0.3058 -0.1157
 7456SOL    HW123818   0.149   2.982   3.841  0.8872 -0.0054  0.1651
 7456SOL    HW223819   0.075   3.112   3.866  0.0432 -0.5514  0.5272
 7457SOL     OW23820   2.372   4.317   4.219  0.2506  0.2885 -0.6081
 7457SOL    HW123821   2.396   4.289   4.307 -0.4161 -0.7775 -0.7389
 7457SOL    HW223822   2.417   4.400   4.206  0.1789  0.5718  0.8206
 7458SOL     OW23823   5.365   6.488   1.097 -0.1357  0.3018  0.3834
 7458SOL    HW123824   5.436   6.550   1.115 -0.8190  0.6529  2.1554
 7458SOL    HW223825   5.396   6.436   1.024  1.9072  0.5157  1.0424
 7459SOL     OW23826   3.741   2.775   6.593  0.4692 -0.2548  0.1326
 7459SOL    HW123827   3.757   2.682   6.573  1.3172  0.2730 -1.9669
 7459SOL    HW223828   3.656   2.793   6.552  1.2274  0.3261 -1.2683
 7460SOL     OW23829   0.745   0.916   2.805 -0.7943 -0.2946 -0.0943
 7460SOL    HW123830   0.663   0.923   2.756 -1.0417  0.6601  0.4369
 7460SOL    HW223831   0.787   1.001   2.794 -1.0981  0.1344  1.7327
 7461SOL     OW23832   6.065   3.255   2.103 -0.0957  0.0685  0.0502
 7461SOL    HW123833   6.133   3.203   2.146  0.4025 -2.0505 -2.9769
 7461SOL    HW223834   6.104   3.342   2.092  0.6856 -0.0723  1.4808
 7462SOL     OW23835   4.906   1.848   0.395  0.3015  0.9266 -0.0108
 7462SOL    HW123836   4.813   1.828   0.383  0.2005  1.9043 -1.0308
 7462SOL    HW223837   4.925   1.914   0.328  1.5645  1.2572  0.6468
 7463SOL     OW23838   6.427   2.672   4.936 -0.2171 -0.4663  0.6089
 7463SOL    HW123839   6.493   2.703   4.998  0.8612 -2.7709  0.7500
 7463SOL    HW223840   6.344   2.676   4.984  0.1428  0.4851  1.1709
 7464SOL     OW23841   3.927   6.881   2.441 -0.0049 -0.2685 -0.1335
 7464SOL    HW123842   3.960   6.961   2.401  0.3718  0.3460  1.3477
 7464SOL    HW223843   3.966   6.810   2.390  0.5112  0.4851 -0.7973
 7465SOL     OW23844   1.729   4.034   2.280 -0.4923 -0.2004 -0.0016
 7465SOL    HW123845   1.678   3.954   2.273 -0.5392 -0.5051  2.7249
 7465SOL    HW223846   1.666   4.104   2.261 -1.4008 -0.6711  1.1594
 7466SOL     OW23847   2.071   4.502   4.729 -0.4196  0.1040 -0.0262
 7466SOL    HW123848   2.122   4.422   4.738 -2.4078 -1.4755 -1.6909
 7466SOL    HW223849   2.034   4.517   4.817 -0.0242 -0.8047  0.3077
 7467SOL     OW23850   4.019   6.849   3.746 -0.2072 -0.0865 -0.0152
 7467SOL    HW123851   4.106   6.814   3.727  0.4495  1.1472  0.5466
 7467SOL    HW223852   3.969   6.774   3.780  0.2407 -1.0825 -1.4823
 7468SOL     OW23853   2.772   6.546   1.930  0.1029  0.1740 -0.4549
 7468SOL    HW123854   2.745   6.603   1.857 -2.3615  1.4022  1.2588
 7468SOL    HW223855   2.826   6.603   1.985  0.8769 -0.3561 -0.6587
 7469SOL     OW23856   4.324   6.449   6.243  0.1345 -0.2016  0.0810
 7469SOL    HW123857   4.317   6.479   6.152 -1.2467 -1.6298 -0.3379
 7469SOL    HW223858   4.414   6.418   6.251  0.3632  0.2196 -0.6999
 7470SOL     OW23859   3.652   5.668   0.186  0.5293 -0.1110  0.2215
 7470SOL    HW123860   3.683   5.682   0.097  0.2039  2.1527  0.4018
 7470SOL    HW223861   3.696   5.589   0.215  1.1205 -0.5402 -1.7245
 7471SOL     OW23862   5.982   1.960   5.984  0.3795  0.1596  0.0568
 7471SOL    HW123863   5.970   2.002   5.899  1.5769  0.7089  0.1450
 7471SOL    HW223864   5.892   1.944   6.015 -0.0750  0.3447 -1.1034
 7472SOL     OW23865   2.230   4.441   4.029  0.5093  0.1079  0.2294
 7472SOL    HW123866   2.271   4.376   4.085  0.8610  0.7402  0.7140
 7472SOL    HW223867   2.137   4.438   4.053  0.7465  0.8139  1.3097
 7473SOL     OW23868   4.598   0.854   0.676 -0.1939 -0.4285  0.0047
 7473SOL    HW123869   4.652   0.804   0.615  1.4731  1.5720 -0.2433
 7473SOL    HW223870   4.602   0.944   0.645 -0.2980  0.4736  2.3616
 7474SOL     OW23871   2.347   2.342   6.779  0.0130 -0.2208 -0.0371
 7474SOL    HW123872   2.283   2.407   6.805  0.2777  0.3938 -0.8674
 7474SOL    HW223873   2.422   2.393   6.748  0.3819 -0.9180 -0.3161
 7475SOL     OW23874   3.768   4.759   0.736 -0.1949 -0.2648 -0.4498
 7475SOL    HW123875   3.857   4.792   0.721  0.1751 -0.7105  0.6665
 7475SOL    HW223876   3.711   4.827   0.700  0.5861 -0.2429 -1.7200
 7476SOL     OW23877   1.390   6.274   4.173 -0.0467  0.2500 -1.0248
 7476SOL    HW123878   1.351   6.190   4.147 -1.9544  0.3572  1.2191
 7476SOL    HW223879   1.478   6.271   4.135  0.5659 -3.4952  0.2425
 7477SOL     OW23880   6.390   1.375   0.259 -0.3879  0.6700  0.5376
 7477SOL    HW123881   6.304   1.372   0.300 -0.2000 -1.2794  0.8849
 7477SOL    HW223882   6.414   1.467   0.260 -2.8594  1.4073 -0.4367
 7478SOL     OW23883   3.957   2.642   0.428  0.6492 -0.4665 -0.0753
 7478SOL    HW123884   4.015   2.715   0.404  1.0407 -0.7477  0.0093
 7478SOL    HW223885   4.002   2.598   0.500 -0.8003  0.7219  1.6499
 7479SOL     OW23886   6.698   5.283   6.554  0.1760 -0.0571  0.0525
 7479SOL    HW123887   6.681   5.205   6.502 -1.6421  1.2779 -1.4733
 7479SOL    HW223888   6.629   5.283   6.621 -1.1066  1.1765 -1.1754
 7480SOL     OW23889   1.445   1.990   4.506  0.2598  0.3407  0.4769
 7480SOL    HW123890   1.451   1.966   4.413  1.1925  1.0925  0.3223
 7480SOL    HW223891   1.536   1.992   4.536 -0.1031 -1.5090  1.8538
 7481SOL     OW23892   4.946   5.201   3.823  0.6011 -0.0170  0.7183
 7481SOL    HW123893   4.964   5.168   3.911 -0.4359  0.3149  1.0641
 7481SOL    HW223894   4.887   5.275   3.836 -2.0363 -1.7510 -0.3702
 7482SOL     OW23895   5.672   0.674   0.803 -0.4973 -0.0514  0.7910
 7482SOL    HW123896   5.586   0.693   0.841 -0.7836 -0.8046  0.5279
 7482SOL    HW223897   5.710   0.761   0.787 -1.4036  0.3039  0.4586
 7483SOL     OW23898   0.994   2.641   4.173 -0.0824 -0.1994  0.3714
 7483SOL    HW123899   1.041   2.699   4.114  0.4177 -0.2837  0.6800
 7483SOL    HW223900   0.906   2.633   4.134 -0.3179  1.1265  0.5665
 7484SOL     OW23901   2.624   5.673   0.513 -0.1508  0.0516  0.3692
 7484SOL    HW123902   2.609   5.676   0.419  0.8880  0.8791  0.2059
 7484SOL    HW223903   2.539   5.693   0.552 -0.1392  1.9439 -0.4501
 7485SOL     OW23904   4.323   5.337   5.340 -0.3865  0.4396 -0.0486
 7485SOL    HW123905   4.379   5.349   5.417 -0.2554  1.1254 -0.2391
 7485SOL    HW223906   4.235   5.329   5.376 -0.2506  0.0747  0.2126
 7486SOL     OW23907   4.765   6.972   4.869  0.1788  0.3498  0.2775
 7486SOL    HW123908   4.850   6.943   4.836 -0.7761 -1.1737 -0.9532
 7486SOL    HW223909   4.730   7.028   4.800 -1.1214 -1.5459 -0.6879
 7487SOL     OW23910   2.157   4.146   3.251 -0.2011 -0.5466  0.6694
 7487SOL    HW123911   2.207   4.156   3.333 -1.4275 -0.4115  1.4323
 7487SOL    HW223912   2.155   4.234   3.214 -0.5859 -0.3812  1.0748
 7488SOL     OW23913   2.150   1.358   0.039 -0.8849 -0.0899  0.1978
 7488SOL    HW123914   2.055   1.362   0.031 -0.8122  0.7910 -0.4858
 7488SOL    HW223915   2.174   1.442   0.077 -0.4122 -0.4919  0.7921
 7489SOL     OW23916   1.805   4.693   1.974 -0.2921  0.3897 -0.4276
 7489SOL    HW123917   1.736   4.635   1.942  0.9372 -1.4938  0.1884
 7489SOL    HW223918   1.882   4.671   1.920  0.9325 -0.5475  1.5914
 7490SOL     OW23919   2.607   5.240   6.990 -0.0272  0.2527 -0.3124
 7490SOL    HW123920   2.633   5.164   7.042 -2.8283  1.1952  2.8100
 7490SOL    HW223921   2.566   5.203   6.912  1.9309 -1.2777 -0.7157
 7491SOL     OW23922   0.660   2.905   7.101 -0.2958 -0.2928  0.3888
 7491SOL    HW123923   0.723   2.963   7.060 -1.5051  2.1250  1.7268
 7491SOL    HW223924   0.710   2.859   7.169  0.1729  1.2961  1.1763
 7492SOL     OW23925   5.003   1.913   0.949 -0.0327 -0.0931 -0.0863
 7492SOL    HW123926   5.098   1.923   0.948 -0.1222  0.7902 -0.3058
 7492SOL    HW223927   4.969   2.001   0.965 -0.8730  0.1046 -2.5601
 7493SOL     OW23928   3.792   4.889   6.166 -0.7439 -0.4773 -0.0697
 7493SOL    HW123929   3.854   4.903   6.095 -1.6469  1.2770 -0.5783
 7493SOL    HW223930   3.707   4.918   6.131 -1.0756  1.2395  1.9250
 7494SOL     OW23931   5.856   0.425   2.064  0.2538  0.0762 -0.6183
 7494SOL    HW123932   5.891   0.335   2.065  0.4144  0.1368  0.7765
 7494SOL    HW223933   5.850   0.447   1.971 -0.0735 -1.4889 -0.9876
 7495SOL     OW23934   1.929   2.460   3.218  0.2929 -0.0609  0.4452
 7495SOL    HW123935   1.865   2.522   3.253  0.3286 -0.0141  0.4279
 7495SOL    HW223936   1.882   2.377   3.215 -0.5385  0.4041 -1.7390
 7496SOL     OW23937   1.468   2.835   3.923  0.3177  0.4634 -0.4888
 7496SOL    HW123938   1.534   2.770   3.896 -0.4074 -0.1955 -0.7146
 7496SOL    HW223939   1.445   2.881   3.842  0.6250  0.8202 -0.3777
 7497SOL     OW23940   2.670   4.056   0.793 -0.3372 -0.4729  0.4243
 7497SOL    HW123941   2.625   3.975   0.770 -0.9308 -0.2992  0.9406
 7497SOL    HW223942   2.722   4.034   0.871 -0.9554 -0.2194  0.9177
 7498SOL     OW23943   3.192   4.742   6.134  0.5181  0.1932 -0.1684
 7498SOL    HW123944   3.261   4.806   6.151  0.8377 -0.7332  2.4565
 7498SOL    HW223945   3.233   4.657   6.152 -0.9065 -0.4781  0.0685
 7499SOL     OW23946   5.145   3.285   1.665  0.2112 -0.5963  0.3620
 7499SOL    HW123947   5.112   3.213   1.719 -2.0697  1.0250  1.2853
 7499SOL    HW223948   5.067   3.325   1.628  1.5096  0.6450 -1.1645
 7500SOL     OW23949   3.443   2.333   4.995 -0.4693  0.0174 -0.2800
 7500SOL    HW123950   3.363   2.287   4.968 -0.3854 -1.6995  2.0733
 7500SOL    HW223951   3.471   2.287   5.074  2.0154  1.5606 -0.1685
 7501SOL     OW23952   1.359   2.240   2.109 -0.3565  0.3163  0.6298
 7501SOL    HW123953   1.328   2.166   2.057  1.0267  1.5258 -2.0779
 7501SOL    HW223954   1.415   2.200   2.176 -0.9974 -1.1807  0.3264
 7502SOL     OW23955   0.635   5.498   1.114 -0.2435 -0.2684 -0.1284
 7502SOL    HW123956   0.678   5.517   1.197  0.4701 -1.3743 -0.2311
 7502SOL    HW223957   0.706   5.476   1.054 -0.5888  2.0040 -1.5106
 7503SOL     OW23958   4.572   2.493   0.072  0.5185  0.3245  0.4549
 7503SOL    HW123959   4.590   2.494   0.165  1.0242 -2.6464  0.4744
 7503SOL    HW223960   4.508   2.423   0.061 -0.7361  1.6491 -1.2816
 7504SOL     OW23961   4.135   1.514   2.282 -0.1084  0.4686 -0.4095
 7504SOL    HW123962   4.125   1.566   2.362  2.4509  1.6036 -0.7200
 7504SOL    HW223963   4.124   1.577   2.211  2.1828  0.4939 -0.8105
 7505SOL     OW23964   6.207   6.712   3.262  0.2737  0.0783 -0.0650
 7505SOL    HW123965   6.244   6.654   3.328  0.9475 -0.3803 -0.8347
 7505SOL    HW223966   6.274   6.717   3.194  0.7251  2.6733  0.4905
 7506SOL     OW23967   3.216   1.774   0.755 -0.2999 -0.3597  0.2264
 7506SOL    HW123968   3.252   1.856   0.719  1.9045 -2.0233 -1.6328
 7506SOL    HW223969   3.122   1.783   0.742 -0.1576  1.9410  0.2151
 7507SOL     OW23970   3.671   5.273   4.602  0.1077 -0.3002 -0.2621
 7507SOL    HW123971   3.740   5.229   4.652  0.8497 -0.3968 -1.3152
 7507SOL    HW223972   3.621   5.201   4.562 -0.2178 -0.2211  0.0026
 7508SOL     OW23973   6.897   6.529   6.798  0.2269  0.0674 -0.4538
 7508SOL    HW123974   6.948   6.577   6.863  0.7372 -2.8065  1.4325
 7508SOL    HW223975   6.808   6.529   6.833  0.2093 -0.2538 -0.4955
 7509SOL     OW23976   1.408   5.281   2.856 -0.0251  0.3761 -0.2668
 7509SOL    HW123977   1.494   5.279   2.898 -0.3166  0.3720  0.3418
 7509SOL    HW223978   1.414   5.352   2.792  0.6201 -0.0138 -0.6532
 7510SOL     OW23979   3.980   7.076   5.011 -0.0841  0.3485  0.3817
 7510SOL    HW123980   3.971   7.049   5.102  0.3760  0.6349  0.5137
 7510SOL    HW223981   3.893   7.108   4.986 -0.1800  0.3728  0.7476
 7511SOL     OW23982   3.827   1.583   0.698 -0.3259  0.0977  0.3083
 7511SOL    HW123983   3.909   1.601   0.744 -0.9420  1.7498  0.8193
 7511SOL    HW223984   3.826   1.645   0.625 -1.8831  1.3346  1.3134
 7512SOL     OW23985   0.876   4.624   0.467  0.0652 -0.3810  0.2945
 7512SOL    HW123986   0.905   4.610   0.377 -0.7323 -0.8689  0.0969
 7512SOL    HW223987   0.878   4.536   0.507  1.6922  0.0193  1.1656
 7513SOL     OW23988   6.191   2.609   4.717 -0.0638 -0.5350 -0.0431
 7513SOL    HW123989   6.202   2.682   4.778 -0.3918 -0.7038  0.2240
 7513SOL    HW223990   6.101   2.617   4.685  0.0817 -0.4925 -0.4477
 7514SOL     OW23991   0.196   5.707   0.871 -0.6934  0.0610  0.1065
 7514SOL    HW123992   0.272   5.708   0.812  0.6339  2.2209  1.6808
 7514SOL    HW223993   0.193   5.618   0.904  0.9397 -0.1920 -0.2972
 7515SOL     OW23994   1.597   6.931   5.382 -0.7419 -0.1871 -0.0544
 7515SOL    HW123995   1.603   6.848   5.334 -1.1861 -0.1331 -0.2048
 7515SOL    HW223996   1.550   6.910   5.463 -0.2481 -0.2192  0.2274
 7516SOL     OW23997   5.420   1.744   5.351  0.1152  0.1071 -0.0171
 7516SOL    HW123998   5.485   1.792   5.403  0.5239 -0.3525 -0.0916
 7516SOL    HW223999   5.458   1.742   5.263  0.3465 -0.7746  0.0912
 7517SOL     OW24000   1.205   1.288   4.144  0.0305  0.2992  0.3765
 7517SOL    HW124001   1.282   1.246   4.106 -0.6198 -0.6407  0.0382
 7517SOL    HW224002   1.213   1.272   4.238 -0.1270 -0.4640  0.2657
 7518SOL     OW24003   6.411   1.190   5.714 -0.8218  0.0669 -0.2672
 7518SOL    HW124004   6.409   1.101   5.750 -1.6724  1.2200  2.8188
 7518SOL    HW224005   6.343   1.189   5.646 -4.0193 -0.6269  2.6706
 7519SOL     OW24006   1.397   4.035   5.378 -0.2442  0.0627 -0.5611
 7519SOL    HW124007   1.460   4.048   5.307  0.3708  1.6387  0.2528
 7519SOL    HW224008   1.448   4.040   5.458 -1.5100  2.6546  0.1909
 7520SOL     OW24009   1.854   2.014   0.185  0.2130 -0.2194 -0.4672
 7520SOL    HW124010   1.872   1.969   0.102 -1.4303  0.7277 -1.4015
 7520SOL    HW224011   1.759   2.026   0.185 -0.3286 -2.9402  3.0505
 7521SOL     OW24012   4.607   6.871   3.734 -0.4096  0.1620  0.5831
 7521SOL    HW124013   4.533   6.906   3.785  1.2994  1.1301  2.5358
 7521SOL    HW224014   4.593   6.777   3.733 -1.9368  0.3633  0.4569
 7522SOL     OW24015   3.629   6.056   4.799  0.3031  0.0738 -0.2170
 7522SOL    HW124016   3.579   6.100   4.868 -0.4236 -1.0075 -0.0261
 7522SOL    HW224017   3.570   6.055   4.724 -0.0182 -1.2986  0.0396
 7523SOL     OW24018   4.369   4.275   2.860  0.0451 -0.4150  0.4717
 7523SOL    HW124019   4.292   4.289   2.914 -0.2202  1.0069 -0.2403
 7523SOL    HW224020   4.339   4.291   2.770  0.3222 -3.2865 -0.2467
 7524SOL     OW24021   6.933   3.849   4.478 -0.0198 -0.3738 -0.3575
 7524SOL    HW124022   6.904   3.819   4.565  0.4138 -0.1643 -0.1357
 7524SOL    HW224023   7.028   3.858   4.487  0.0810 -0.7807 -0.9909
 7525SOL     OW24024   2.337   2.599   5.070 -0.5461  0.5067  0.3738
 7525SOL    HW124025   2.365   2.586   4.979 -3.4660  2.1430 -0.8978
 7525SOL    HW224026   2.322   2.510   5.103 -3.2242 -0.1897 -2.1852
 7526SOL     OW24027   1.285   6.567   2.957 -0.1358 -0.8215 -0.4911
 7526SOL    HW124028   1.216   6.603   2.901  1.5432 -0.3451 -2.4019
 7526SOL    HW224029   1.303   6.481   2.919  0.9166 -0.5571 -0.6339
 7527SOL     OW24030   5.254   5.678   1.445  0.2233 -0.7081  0.4155
 7527SOL    HW124031   5.344   5.651   1.426 -0.0847 -1.3766 -0.1382
 7527SOL    HW224032   5.211   5.680   1.359 -0.1668  0.0887  0.6168
 7528SOL     OW24033   6.304   4.610   5.686 -0.0248  0.4304 -0.3360
 7528SOL    HW124034   6.389   4.565   5.695 -0.8428 -1.0017  0.6351
 7528SOL    HW224035   6.262   4.568   5.612 -1.0631 -0.9498  0.9705
 7529SOL     OW24036   7.060   3.755   1.902  0.5895 -0.0853 -0.3036
 7529SOL    HW124037   6.999   3.784   1.970  0.6581  0.4581 -0.4731
 7529SOL    HW224038   7.004   3.729   1.829  0.3784 -2.5987  0.6295
 7530SOL     OW24039   0.279   0.446   5.755  0.4179 -0.1505 -0.1245
 7530SOL    HW124040   0.254   0.465   5.846 -0.5201  0.9031 -0.5792
 7530SOL    HW224041   0.221   0.375   5.729 -0.0581  0.2767 -0.2354
 7531SOL     OW24042   3.951   2.171   1.211 -0.1814 -0.1657 -0.0994
 7531SOL    HW124043   3.966   2.248   1.156  0.1771  0.9552  1.4954
 7531SOL    HW224044   3.978   2.198   1.299 -1.3492 -1.6574  0.7836
 7532SOL     OW24045   2.712   6.407   0.561  0.6439  0.0514  0.6418
 7532SOL    HW124046   2.766   6.409   0.639 -0.6976 -0.9383  1.6372
 7532SOL    HW224047   2.701   6.314   0.541  0.1019  0.2618 -0.1105
 7533SOL     OW24048   1.946   1.102   6.492  0.7906  0.2696  0.1388
 7533SOL    HW124049   1.987   1.094   6.406 -0.3682 -0.0437 -0.4111
 7533SOL    HW224050   1.852   1.095   6.475  0.5856 -1.1745  1.5680
 7534SOL     OW24051   4.641   7.048   3.056  0.6015 -0.6361 -0.0385
 7534SOL    HW124052   4.722   7.013   3.095  0.1639  0.2775  1.7568
 7534SOL    HW224053   4.573   7.028   3.119  0.0558  1.9683  0.3102
 7535SOL     OW24054   6.253   5.877   2.554 -0.9252 -0.3812  0.3776
 7535SOL    HW124055   6.225   5.946   2.494 -1.2954  0.1230  1.1149
 7535SOL    HW224056   6.349   5.880   2.551 -0.9336  0.4335  0.6938
 7536SOL     OW24057   4.432   2.942   0.648 -0.0744 -0.0232 -0.8274
 7536SOL    HW124058   4.490   3.011   0.679  1.4966 -0.8575 -1.7812
 7536SOL    HW224059   4.387   2.980   0.573 -0.8668  0.6562 -0.0326
 7537SOL     OW24060   0.564   0.661   2.538 -0.4367 -0.5265  0.0575
 7537SOL    HW124061   0.620   0.599   2.586 -1.3203 -0.8741  0.6653
 7537SOL    HW224062   0.621   0.696   2.469  0.7547 -0.3042  1.1118
 7538SOL     OW24063   3.762   4.924   0.037  0.1528 -0.1699 -0.4147
 7538SOL    HW124064   3.668   4.930   0.057 -0.4993 -0.7599 -2.9316
 7538SOL    HW224065   3.768   4.951  -0.055  1.8442 -3.7733 -1.5527
 7539SOL     OW24066   1.878   0.041   5.678  0.6147 -0.0739 -0.3289
 7539SOL    HW124067   1.958   0.049   5.627  1.0510  0.1832  0.3779
 7539SOL    HW224068   1.896  -0.031   5.739 -0.0509 -0.6555 -0.7975
 7540SOL     OW24069   5.829   0.855   2.605  0.5428  0.4428 -0.4541
 7540SOL    HW124070   5.856   0.946   2.623  0.6322  0.2794  0.2578
 7540SOL    HW224071   5.734   0.861   2.591  0.6848  0.7856 -1.4111
 7541SOL     OW24072   4.448   1.410   3.452  0.0109  0.6054  0.1130
 7541SOL    HW124073   4.455   1.380   3.362 -4.5784  0.9803 -0.6344
 7541SOL    HW224074   4.507   1.485   3.457 -0.0963  1.0076 -2.8270
 7542SOL     OW24075   1.298   1.182   6.851 -0.9206 -0.1854 -0.1099
 7542SOL    HW124076   1.341   1.108   6.894  1.0812 -0.4753 -2.3414
 7542SOL    HW224077   1.221   1.199   6.904  0.8814 -0.9656  3.0468
 7543SOL     OW24078   1.978   0.426   0.413 -0.0551 -0.2212  0.0798
 7543SOL    HW124079   1.928   0.453   0.490 -0.8991 -0.9140 -0.2023
 7543SOL    HW224080   1.922   0.450   0.339 -0.1686 -1.3935 -0.2276
 7544SOL     OW24081   1.744   2.931   6.956  0.3323 -0.4278 -0.0181
 7544SOL    HW124082   1.700   2.846   6.949 -1.0421  0.4055 -2.4308
 7544SOL    HW224083   1.718   2.979   6.878  0.3979  2.5701  1.6258
 7545SOL     OW24084   5.190   3.111   4.197 -0.0978  0.2165 -0.6476
 7545SOL    HW124085   5.133   3.036   4.211  1.6483 -1.0629  0.0524
 7545SOL    HW224086   5.172   3.138   4.107 -1.4561 -0.4134 -0.5932
 7546SOL     OW24087   4.037   5.024   1.918 -0.3538  0.5898  0.0496
 7546SOL    HW124088   3.978   4.962   1.961  0.5226 -0.6569 -0.4896
 7546SOL    HW224089   4.008   5.025   1.827  0.5003 -0.1421 -0.2524
 7547SOL     OW24090   3.925   5.342   3.158  0.1189 -0.2461  0.2319
 7547SOL    HW124091   3.837   5.379   3.168  1.0852  2.2207  0.2352
 7547SOL    HW224092   3.952   5.320   3.248  0.3210  1.0755  0.5132
 7548SOL     OW24093   0.095   1.047   6.830 -0.3302 -0.3818 -0.0828
 7548SOL    HW124094   0.130   1.123   6.783  0.7300 -0.6458  0.2540
 7548SOL    HW224095   0.147   0.973   6.800  1.3572 -0.3605  2.4575
 7549SOL     OW24096   3.979   6.661   5.878 -0.5104  0.4199  0.2252
 7549SOL    HW124097   4.032   6.582   5.872 -2.3818 -0.8463 -0.7165
 7549SOL    HW224098   3.902   6.634   5.929 -0.6331  1.9688  0.9122
 7550SOL     OW24099   3.843   0.916   3.249  0.0871  0.0187 -0.2810
 7550SOL    HW124100   3.840   0.975   3.173  0.4247  0.1280 -0.2106
 7550SOL    HW224101   3.804   0.835   3.217 -0.3735  0.2776 -0.3808
 7551SOL     OW24102   3.079   3.901   0.449 -0.1296  0.1158 -0.4733
 7551SOL    HW124103   3.058   3.993   0.466  2.7101  0.7985 -0.1233
 7551SOL    HW224104   3.132   3.902   0.369 -0.9159 -1.3662 -1.0560
 7552SOL     OW24105   5.222   6.115   3.688  0.3496  0.1152  0.1191
 7552SOL    HW124106   5.200   6.068   3.768  0.3642 -0.6382 -0.3147
 7552SOL    HW224107   5.152   6.181   3.679 -2.3234 -2.7023 -1.6430
 7553SOL     OW24108   3.030   0.483   4.634  0.5355 -0.3282 -0.3029
 7553SOL    HW124109   3.068   0.452   4.552 -2.6562  1.2638 -2.6096
 7553SOL    HW224110   2.963   0.419   4.656 -0.6813  0.7813 -0.6809
 7554SOL     OW24111   5.424   6.154   5.559 -0.1134 -0.1495  0.6626
 7554SOL    HW124112   5.342   6.183   5.519  0.0285 -0.9897 -0.3001
 7554SOL    HW224113   5.398   6.078   5.612 -0.1538  0.3871  1.4166
 7555SOL     OW24114   0.170   3.647   6.287  0.3745  0.3616 -0.1051
 7555SOL    HW124115   0.140   3.611   6.370 -0.6761  0.2281 -0.5322
 7555SOL    HW224116   0.179   3.572   6.229 -2.6601  0.7426 -1.2643
 7556SOL     OW24117   3.161   2.056   5.517 -0.1686 -0.2951 -0.0171
 7556SOL    HW124118   3.085   2.107   5.489 -0.0583  0.2860  0.6970
 7556SOL    HW224119   3.220   2.058   5.441 -0.1944  0.6031 -0.0299
 7557SOL     OW24120   0.652   3.574   2.593 -0.3105 -0.1242 -0.3252
 7557SOL    HW124121   0.740   3.538   2.606 -1.2078 -2.3154  0.2820
 7557SOL    HW224122   0.649   3.598   2.501  1.0796  0.4760 -0.2374
 7558SOL     OW24123   3.012   5.703   4.031  0.1206 -0.6902 -0.0179
 7558SOL    HW124124   2.933   5.755   4.046  0.0786 -0.4861 -0.9061
 7558SOL    HW224125   2.991   5.650   3.955  1.6469  1.0687 -1.7666
 7559SOL     OW24126   0.138   0.949   6.513 -0.2830 -0.1275  0.1984
 7559SOL    HW124127   0.223   0.989   6.527  0.2152 -1.1207  0.0694
 7559SOL    HW224128   0.155   0.855   6.509 -1.3596 -0.3354  0.0022
 7560SOL     OW24129   3.131   4.087   6.239 -0.0346 -0.0604 -0.6617
 7560SOL    HW124130   3.167   4.000   6.257  0.8872  0.6250  1.0124
 7560SOL    HW224131   3.194   4.128   6.181 -0.1734 -0.2907 -0.9786
 7561SOL     OW24132   0.632   0.384   4.135 -0.9289 -0.5353 -0.0900
 7561SOL    HW124133   0.590   0.417   4.055  0.6612  1.5840 -0.1634
 7561SOL    HW224134   0.671   0.301   4.109 -1.7735 -0.6522 -1.0593
 7562SOL     OW24135   5.682   1.700   5.638 -0.2284 -0.4797 -0.5461
 7562SOL    HW124136   5.632   1.774   5.603 -0.7024  0.6134  2.2085
 7562SOL    HW224137   5.620   1.627   5.637 -1.1944  0.2814  0.6515
 7563SOL     OW24138   1.020   1.886   7.133 -0.1668  0.2364  0.3915
 7563SOL    HW124139   1.036   1.959   7.193  0.8018 -0.2734  0.7865
 7563SOL    HW224140   1.104   1.840   7.129 -0.4768 -0.2704 -0.6506
 7564SOL     OW24141   2.783   5.108   5.702 -0.1707  0.1655  0.4125
 7564SOL    HW124142   2.775   5.151   5.787 -1.5693  0.3769  0.1976
 7564SOL    HW224143   2.788   5.179   5.639  0.3700  0.0063  0.2684
 7565SOL     OW24144   6.239   4.281   2.526 -0.1606  0.1328 -0.1399
 7565SOL    HW124145   6.204   4.198   2.558 -0.8241  0.5057  0.1149
 7565SOL    HW224146   6.186   4.348   2.569 -0.1775  0.6727 -0.9852
 7566SOL     OW24147   4.346   1.200   6.153 -0.0678  0.2493 -0.1641
 7566SOL    HW124148   4.287   1.131   6.183  1.1549 -0.5584  0.4815
 7566SOL    HW224149   4.292   1.279   6.153 -1.0788 -0.4100  0.6579
 7567SOL     OW24150   2.183   3.388   0.448  0.0937 -0.5379  0.5139
 7567SOL    HW124151   2.094   3.409   0.477 -0.1835 -1.7323  0.5591
 7567SOL    HW224152   2.228   3.473   0.447 -1.1868  0.1570 -0.0381
 7568SOL     OW24153   5.803   1.112   2.033  0.6503  0.2132 -0.0955
 7568SOL    HW124154   5.878   1.137   2.087  1.6496 -1.1278 -0.8150
 7568SOL    HW224155   5.748   1.060   2.092  0.5681  0.6785  0.2533
 7569SOL     OW24156   0.778   0.200   1.568  0.3047 -0.0413  0.9567
 7569SOL    HW124157   0.741   0.253   1.639 -0.5921 -1.1574  1.3572
 7569SOL    HW224158   0.815   0.264   1.507 -0.7379  1.0453  1.4211
 7570SOL     OW24159   3.186   2.232   4.908  0.3015  0.6939 -0.3180
 7570SOL    HW124160   3.159   2.164   4.969 -0.7240  0.4694 -0.9986
 7570SOL    HW224161   3.118   2.299   4.916  0.0575  0.5828 -1.3215
 7571SOL     OW24162   4.278   6.173   2.841 -0.4237 -0.1456  0.3345
 7571SOL    HW124163   4.204   6.218   2.882  0.3630 -0.7696  2.5801
 7571SOL    HW224164   4.354   6.226   2.863  0.0135 -0.3557 -0.6086
 7572SOL     OW24165   5.481   4.525   3.610 -0.4540  0.3754 -0.3956
 7572SOL    HW124166   5.487   4.442   3.562 -3.0813 -1.3837  1.9500
 7572SOL    HW224167   5.425   4.580   3.555 -0.1956 -0.0992 -1.1550
 7573SOL     OW24168   2.960   5.790   1.418 -0.3211  0.1262  0.0976
 7573SOL    HW124169   2.921   5.703   1.428 -1.0958  0.4663  0.0676
 7573SOL    HW224170   3.006   5.786   1.334  0.1629 -0.4421  0.3803
 7574SOL     OW24171   2.429   1.203   1.897  0.6419  0.3332  0.9908
 7574SOL    HW124172   2.347   1.252   1.908 -0.9636 -1.9519 -0.0125
 7574SOL    HW224173   2.402   1.120   1.857  3.4936 -0.4607  0.5189
 7575SOL     OW24174   5.898   0.579   2.657  0.3599 -0.0922 -0.5576
 7575SOL    HW124175   5.875   0.595   2.749 -0.8294  0.1137 -0.8665
 7575SOL    HW224176   5.895   0.665   2.616 -2.4278 -0.5023 -1.4527
 7576SOL     OW24177   2.089   0.898   1.831 -0.0194  0.2278 -0.2991
 7576SOL    HW124178   2.087   0.935   1.919  0.9079  0.1581 -0.2340
 7576SOL    HW224179   2.099   0.804   1.845  3.3921  0.4533 -0.4167
 7577SOL     OW24180   1.451   5.734   3.500 -0.2919 -0.1016 -0.4571
 7577SOL    HW124181   1.369   5.688   3.519 -0.0866 -1.0821 -1.7943
 7577SOL    HW224182   1.515   5.665   3.487  0.3649  0.6048 -1.0875
 7578SOL     OW24183   6.754   2.392   1.031  0.8932 -0.4455  0.1791
 7578SOL    HW124184   6.772   2.417   0.940  1.3977 -0.7345  0.1980
 7578SOL    HW224185   6.680   2.447   1.056  2.7463  2.0086  0.6399
 7579SOL     OW24186   0.829   3.712   1.325  0.8577  0.1420 -0.0852
 7579SOL    HW124187   0.896   3.753   1.379  0.7221  1.1782 -0.6740
 7579SOL    HW224188   0.785   3.785   1.282 -1.3329 -0.4104  1.0505
 7580SOL     OW24189   5.724   6.228   6.520  0.1155 -0.1209 -0.1945
 7580SOL    HW124190   5.652   6.252   6.462  0.2751  0.0710 -0.3128
 7580SOL    HW224191   5.688   6.159   6.576 -0.1476 -0.0507 -0.2780
 7581SOL     OW24192   4.471   5.763   2.729  0.4165 -0.2301  0.9678
 7581SOL    HW124193   4.468   5.847   2.773  2.5084  0.6686 -0.4484
 7581SOL    HW224194   4.413   5.773   2.653  3.5592  1.4383 -1.4226
 7582SOL     OW24195   0.159   3.618   0.642  0.4532 -0.0565 -0.0432
 7582SOL    HW124196   0.169   3.533   0.685  0.2765  0.3795  0.8860
 7582SOL    HW224197   0.113   3.599   0.560 -0.6815 -0.6988  0.7296
 7583SOL     OW24198   0.656   5.564   4.005  0.1048 -0.4116  0.1271
 7583SOL    HW124199   0.593   5.606   3.946 -0.6947 -0.3437  1.0140
 7583SOL    HW224200   0.641   5.470   3.992  1.5834 -0.4698 -1.5213
 7584SOL     OW24201   6.132   1.669   7.139  0.2613 -0.1322  0.6324
 7584SOL    HW124202   6.206   1.716   7.100  1.1093 -1.8946  0.0025
 7584SOL    HW224203   6.153   1.664   7.232  0.1755  0.6846  0.7015
 7585SOL     OW24204   3.598   6.016   1.469 -0.2593  0.2793 -0.5356
 7585SOL    HW124205   3.617   6.003   1.376 -1.3650  0.0222 -0.7461
 7585SOL    HW224206   3.668   5.971   1.515  0.2801  0.3780 -1.2464
 7586SOL     OW24207   2.277   6.791   2.504  0.5032 -0.4161  0.8359
 7586SOL    HW124208   2.318   6.708   2.480 -0.3199 -0.8478  0.8904
 7586SOL    HW224209   2.220   6.812   2.430  0.6991  0.1062  0.8261
 7587SOL     OW24210   3.826   5.490   0.300  0.2808 -0.1226 -0.1905
 7587SOL    HW124211   3.913   5.473   0.337  0.7266 -1.2861 -1.6404
 7587SOL    HW224212   3.766   5.481   0.374  1.3665  0.4961  0.7942
 7588SOL     OW24213   3.498   0.689   1.410 -0.5666 -0.0622 -0.5250
 7588SOL    HW124214   3.575   0.671   1.357 -0.4939 -2.1224  0.2142
 7588SOL    HW224215   3.461   0.769   1.372  0.7610 -0.1839 -2.1788
 7589SOL     OW24216   0.293   3.461   3.407  0.2656 -0.1647  0.2679
 7589SOL    HW124217   0.302   3.462   3.503  2.0520 -0.7468  0.1514
 7589SOL    HW224218   0.272   3.551   3.384  1.0478  0.2559  1.1196
 7590SOL     OW24219   2.587   1.447   1.268  0.4461  0.0292 -0.0345
 7590SOL    HW124220   2.637   1.369   1.243 -0.3181 -0.4063 -0.2736
 7590SOL    HW224221   2.563   1.488   1.185  0.8535  0.5314  0.0923
 7591SOL     OW24222   0.928   5.845   6.663  0.6961  0.3704  0.4581
 7591SOL    HW124223   0.852   5.787   6.674  0.8271  0.5609  2.9780
 7591SOL    HW224224   0.997   5.788   6.630  0.8273 -1.0133  2.8767
 7592SOL     OW24225   2.853   3.691   4.849 -0.1299 -0.0757  0.0439
 7592SOL    HW124226   2.818   3.682   4.760  0.3873 -0.7125 -0.0973
 7592SOL    HW224227   2.796   3.757   4.890 -1.8212 -1.4162 -0.0190
 7593SOL     OW24228   3.035   3.728   1.302 -0.2100  0.4972  0.2140
 7593SOL    HW124229   3.024   3.821   1.282  3.0517  0.8228 -0.6873
 7593SOL    HW224230   3.008   3.683   1.223  0.2218  0.8444 -0.1365
 7594SOL     OW24231   2.502   2.393   2.673 -0.5905 -0.4458  0.1961
 7594SOL    HW124232   2.477   2.374   2.763 -0.2352  0.4907  0.5123
 7594SOL    HW224233   2.451   2.472   2.650 -1.1351 -1.0170 -0.6357
 7595SOL     OW24234   3.867   0.803   2.343  0.4686 -0.2820  0.7765
 7595SOL    HW124235   3.818   0.783   2.264  1.4455  0.6542 -0.0991
 7595SOL    HW224236   3.866   0.899   2.349  2.9619 -0.1487  0.1795
 7596SOL     OW24237   6.893   2.007   3.044 -0.2318  0.2083 -0.4085
 7596SOL    HW124238   6.930   2.095   3.042  0.5379 -0.1084 -0.5843
 7596SOL    HW224239   6.960   1.952   3.003  0.3184 -0.8180  1.6916
 7597SOL     OW24240   0.440   6.827   3.394 -0.0082  0.2281  0.7611
 7597SOL    HW124241   0.484   6.782   3.322 -0.4438 -1.3244  1.4327
 7597SOL    HW224242   0.508   6.839   3.460  0.3882  1.6402  0.1485
 7598SOL     OW24243   3.068   6.063   6.134 -0.0268  0.2102  0.2797
 7598SOL    HW124244   3.039   6.026   6.218  0.6390  3.1657  1.9626
 7598SOL    HW224245   3.004   6.131   6.114  1.4814  1.6378  0.0704
 7599SOL     OW24246   1.001   2.372   2.211  0.3981  0.4660 -0.3158
 7599SOL    HW124247   0.956   2.291   2.236 -0.1667  0.9206  0.1755
 7599SOL    HW224248   0.998   2.426   2.289 -0.4490  1.4975 -1.0271
 7600SOL     OW24249   3.458   5.452   6.539  0.2457 -0.7004  0.3294
 7600SOL    HW124250   3.501   5.494   6.464 -0.7620 -0.6695 -0.2464
 7600SOL    HW224251   3.404   5.383   6.500 -1.4585  0.2762  0.8593
 7601SOL     OW24252   1.262   0.719   3.635  0.5385  0.0761  0.2128
 7601SOL    HW124253   1.268   0.703   3.729  0.4797  0.9546  0.3769
 7601SOL    HW224254   1.352   0.733   3.607  0.7182 -1.5677 -0.1420
 7602SOL     OW24255   3.320   6.651   4.216  0.4335 -0.1634  0.0488
 7602SOL    HW124256   3.397   6.707   4.217  0.2210  0.1319  0.1879
 7602SOL    HW224257   3.266   6.686   4.145  0.4132 -0.3497 -0.0295
 7603SOL     OW24258   4.876   5.406   4.515  0.3055  0.2086  0.8068
 7603SOL    HW124259   4.931   5.473   4.557  1.7610  0.3929 -1.2350
 7603SOL    HW224260   4.939   5.344   4.478 -0.8503  0.2787 -1.4140
 7604SOL     OW24261   1.658   5.157   0.909 -0.0594 -0.2138 -0.3775
 7604SOL    HW124262   1.607   5.221   0.959 -2.5255 -0.3580 -2.4655
 7604SOL    HW224263   1.602   5.079   0.907  0.5409 -0.6445 -2.1474
 7605SOL     OW24264   1.846   3.529   3.429  0.0690 -0.2457  0.8737
 7605SOL    HW124265   1.755   3.545   3.454 -0.3710  1.0165 -1.3040
 7605SOL    HW224266   1.882   3.479   3.502 -2.5046 -1.2538  1.5714
 7606SOL     OW24267   0.788   3.087   6.059  0.2619  0.1968  0.0007
 7606SOL    HW124268   0.875   3.109   6.091  0.9992 -2.8882  0.4474
 7606SOL    HW224269   0.793   2.993   6.038 -2.8161  0.0151 -0.4124
 7607SOL     OW24270   4.687   6.130   2.549  0.2565  0.2363 -0.2655
 7607SOL    HW124271   4.617   6.148   2.611  1.6324  0.2662  1.3461
 7607SOL    HW224272   4.642   6.097   2.471 -1.6188  1.4867  0.2155
 7608SOL     OW24273   1.944   2.073   5.676  0.1774  0.0281  0.0702
 7608SOL    HW124274   1.876   2.140   5.678 -0.3169 -0.3914 -1.3944
 7608SOL    HW224275   1.898   1.993   5.652  1.2521 -0.1324 -1.6432
 7609SOL     OW24276   3.489   6.788   2.615  0.3813  0.1394 -0.3358
 7609SOL    HW124277   3.481   6.695   2.594 -0.2309  0.1383 -0.1282
 7609SOL    HW224278   3.520   6.829   2.534  1.0001 -0.2902 -0.3215
 7610SOL     OW24279   0.186   6.959   5.596 -0.3452 -0.0536  0.4477
 7610SOL    HW124280   0.232   6.881   5.567  0.8999  1.0326 -0.6429
 7610SOL    HW224281   0.151   6.936   5.682 -0.5533 -1.9869 -0.1060
 7611SOL     OW24282   5.154   3.950   2.989  0.2872  0.0979 -0.3249
 7611SOL    HW124283   5.236   3.989   2.959 -0.6771  1.3726 -1.3726
 7611SOL    HW224284   5.147   3.868   2.939  0.6007  0.2997 -0.7056
 7612SOL     OW24285   0.738   4.714   3.184 -0.3136 -0.4414  0.1290
 7612SOL    HW124286   0.785   4.789   3.146 -1.3486  0.4189  0.4873
 7612SOL    HW224287   0.696   4.749   3.262  0.6494 -1.8596  1.3419
 7613SOL     OW24288   1.452   1.499   2.629  0.0558 -0.0652  0.3861
 7613SOL    HW124289   1.379   1.460   2.582 -0.6637  1.1074  0.4845
 7613SOL    HW224290   1.519   1.513   2.562 -1.0559  1.8183 -0.4145
 7614SOL     OW24291   4.288   4.182   5.930  0.2675  0.2284 -0.4035
 7614SOL    HW124292   4.313   4.262   5.976 -1.4896  0.4704  0.2284
 7614SOL    HW224293   4.356   4.119   5.952 -0.1510  0.5403  2.0556
 7615SOL     OW24294   6.713   3.770   1.859 -0.2265 -0.0457 -0.6940
 7615SOL    HW124295   6.623   3.790   1.884 -0.0866 -0.2131 -0.0315
 7615SOL    HW224296   6.767   3.824   1.918  0.1503 -1.9132  0.7743
 7616SOL     OW24297   5.504   1.269   0.600  0.6812 -0.4394  0.0117
 7616SOL    HW124298   5.430   1.328   0.586 -0.4667 -1.6789  0.6438
 7616SOL    HW224299   5.563   1.318   0.657  0.1273  0.3868 -0.1095
 7617SOL     OW24300   0.286   6.829   2.602 -0.2953  0.2238  0.0816
 7617SOL    HW124301   0.228   6.752   2.605  0.0465 -0.0343  0.1386
 7617SOL    HW224302   0.236   6.899   2.644 -0.3554 -0.1399  0.6215
 7618SOL     OW24303   2.069   0.338   2.311 -0.0386 -0.1719 -0.0925
 7618SOL    HW124304   2.074   0.340   2.407  0.2628 -0.1011 -0.1072
 7618SOL    HW224305   2.006   0.269   2.291  1.6283 -1.8057  0.1069
 7619SOL     OW24306   3.212   5.019   6.790 -0.1102 -0.3434 -0.1983
 7619SOL    HW124307   3.255   5.077   6.728 -0.1885 -0.7402 -0.6284
 7619SOL    HW224308   3.233   4.931   6.759 -2.7115 -0.5976 -1.5052
 7620SOL     OW24309   6.835   5.246   2.128  0.0489 -0.0931 -0.2651
 7620SOL    HW124310   6.797   5.322   2.084 -0.3778  0.6312  1.3046
 7620SOL    HW224311   6.919   5.277   2.161 -0.7774  0.2117  1.7031
 7621SOL     OW24312   0.834   2.652   5.707  0.1827  0.2382 -0.1780
 7621SOL    HW124313   0.785   2.620   5.631  0.0416 -0.3054  0.1304
 7621SOL    HW224314   0.912   2.596   5.710  1.3696  1.7530 -1.2567
 7622SOL     OW24315   2.630   6.488   5.643 -0.2355  0.1041 -0.6767
 7622SOL    HW124316   2.697   6.462   5.579 -1.0940  0.0378 -1.5867
 7622SOL    HW224317   2.615   6.581   5.625 -0.4094  0.1087 -0.5070
 7623SOL     OW24318   5.618   2.532   4.066 -0.2181 -0.3324 -0.4159
 7623SOL    HW124319   5.711   2.555   4.071 -0.1909 -0.5152 -0.0930
 7623SOL    HW224320   5.573   2.608   4.104 -0.1502 -0.6239  0.2581
 7624SOL     OW24321   3.579   3.934   4.004  0.3783  0.3472 -0.1681
 7624SOL    HW124322   3.660   3.962   3.963 -0.2465  0.7302 -1.1870
 7624SOL    HW224323   3.536   3.880   3.937  0.2759 -0.7165  0.7400
 7625SOL     OW24324   4.956   5.866   5.244  0.1568 -0.4989  0.4437
 7625SOL    HW124325   4.902   5.816   5.304  0.2254  0.6611  1.5021
 7625SOL    HW224326   4.918   5.850   5.158  0.8436 -3.2396  0.5652
 7626SOL     OW24327   1.148   4.308   1.294 -0.2936  0.3272 -0.0931
 7626SOL    HW124328   1.121   4.302   1.386 -1.5181 -2.6758 -0.5502
 7626SOL    HW224329   1.226   4.253   1.287 -0.8366 -0.3584 -1.0330
 7627SOL     OW24330   5.688   5.701   2.891  0.1591 -0.2080  0.3660
 7627SOL    HW124331   5.709   5.661   2.806 -0.4209  1.1265 -0.4484
 7627SOL    HW224332   5.750   5.661   2.952 -0.3567 -2.2796 -0.3825
 7628SOL     OW24333   7.117   1.576   6.738 -0.2596 -0.5708  0.7019
 7628SOL    HW124334   7.207   1.607   6.748 -0.7046  2.7180 -2.9574
 7628SOL    HW224335   7.121   1.514   6.665 -0.9964 -0.2006  0.3409
 7629SOL     OW24336   3.965   4.001   5.519 -0.2713 -0.1060 -0.2612
 7629SOL    HW124337   3.887   3.993   5.463 -0.5366  1.3997 -0.1448
 7629SOL    HW224338   3.950   4.080   5.570  0.8646 -0.3838  0.5429
 7630SOL     OW24339   1.248   4.736   0.614  0.0766 -0.4463 -0.3254
 7630SOL    HW124340   1.299   4.816   0.629  0.2340 -0.7901  1.1969
 7630SOL    HW224341   1.288   4.695   0.538  0.5910  0.4533 -0.5552
 7631SOL     OW24342   2.434   4.581   5.297 -0.3547 -0.5329  0.0033
 7631SOL    HW124343   2.470   4.595   5.384 -1.7132  0.0432  0.5043
 7631SOL    HW224344   2.479   4.503   5.265  2.1339  0.7735  0.0971
 7632SOL     OW24345   2.640   3.174   6.331  0.7330  0.2501 -0.0412
 7632SOL    HW124346   2.587   3.190   6.409  0.2596  0.0184 -0.3118
 7632SOL    HW224347   2.683   3.258   6.314 -0.4773  0.7999 -0.5118
 7633SOL     OW24348   0.825   6.743   2.657 -0.1335 -0.0483 -0.1160
 7633SOL    HW124349   0.731   6.735   2.672  0.0098  0.4422  1.1611
 7633SOL    HW224350   0.834   6.824   2.606 -0.5411 -1.1164 -1.9392
 7634SOL     OW24351   0.520   5.863   0.459 -0.3687  0.3174 -0.5895
 7634SOL    HW124352   0.467   5.853   0.380  0.2919 -0.3592 -0.9505
 7634SOL    HW224353   0.609   5.874   0.428 -0.2993  1.6972  0.0120
 7635SOL     OW24354   4.260   0.019   3.721 -0.3072 -0.0032  0.4584
 7635SOL    HW124355   4.201   0.016   3.646  1.1541 -0.2527 -0.7453
 7635SOL    HW224356   4.264  -0.071   3.753  1.5918 -0.6304 -1.3063
 7636SOL     OW24357   1.963   0.733   7.071  0.4264  0.1825  0.1275
 7636SOL    HW124358   1.911   0.652   7.065 -0.3165  0.7245 -0.9086
 7636SOL    HW224359   2.005   0.727   7.157 -2.1346  0.1883  1.4819
 7637SOL     OW24360   3.404   3.860   1.040  0.1246  0.2294 -0.3738
 7637SOL    HW124361   3.410   3.953   1.063  1.5763  0.8637 -2.9808
 7637SOL    HW224362   3.322   3.852   0.992  0.5340  0.3933 -1.0996
 7638SOL     OW24363   5.591   0.485   3.637 -0.2630 -0.0233 -0.2662
 7638SOL    HW124364   5.524   0.450   3.578  0.7411  1.6050 -2.5269
 7638SOL    HW224365   5.558   0.466   3.725 -2.8843 -0.6923 -1.2979
 7639SOL     OW24366   4.156   1.533   2.681 -0.1045  0.0652 -0.2987
 7639SOL    HW124367   4.205   1.468   2.630  0.9247  0.6656 -0.0994
 7639SOL    HW224368   4.219   1.604   2.696 -0.3974 -0.0546  1.7254
 7640SOL     OW24369   5.632   5.475   4.705  0.3565 -0.1552 -0.3267
 7640SOL    HW124370   5.572   5.473   4.631  0.0218  1.2570 -0.1276
 7640SOL    HW224371   5.665   5.565   4.706  0.4975 -0.2043  1.1127
 7641SOL     OW24372   5.474   6.963   5.287 -0.5245  0.1670 -0.5605
 7641SOL    HW124373   5.538   7.017   5.333 -1.6083  1.3024 -0.3173
 7641SOL    HW224374   5.389   7.001   5.311 -1.3177 -1.4238 -0.6978
 7642SOL     OW24375   0.159   2.040   6.544 -0.6551 -0.3337 -0.2660
 7642SOL    HW124376   0.201   1.957   6.564  0.3146  0.0065 -0.8158
 7642SOL    HW224377   0.154   2.042   6.448 -0.9740  0.0911 -0.2454
 7643SOL     OW24378   6.638   5.381   0.501 -0.0593 -0.3072  0.2896
 7643SOL    HW124379   6.646   5.446   0.431 -1.0569 -0.0492  0.4062
 7643SOL    HW224380   6.549   5.393   0.536  0.1527 -0.9496  1.0889
 7644SOL     OW24381   5.530   3.584   1.999 -0.0117  0.1336  0.0645
 7644SOL    HW124382   5.444   3.624   1.987 -0.6571 -0.9875  0.7756
 7644SOL    HW224383   5.554   3.550   1.913 -0.4889  0.0465 -0.0354
 7645SOL     OW24384   7.070   1.305   4.505 -0.5279 -0.1988  0.0384
 7645SOL    HW124385   7.132   1.376   4.486 -0.3281  0.2328  2.0668
 7645SOL    HW224386   7.122   1.226   4.493  0.0365  0.1132  0.3061
 7646SOL     OW24387   4.990   5.446   4.102  0.1645 -0.6502 -0.6929
 7646SOL    HW124388   4.937   5.483   4.172  0.9577 -0.4681 -0.1798
 7646SOL    HW224389   4.931   5.443   4.027  0.0229  1.4759 -0.7194
 7647SOL     OW24390   2.242   6.913   5.661  0.0541 -0.3519 -0.3171
 7647SOL    HW124391   2.178   6.845   5.681  0.1281 -0.4317 -0.3516
 7647SOL    HW224392   2.200   6.966   5.594 -1.3813  1.6114  1.9777
 7648SOL     OW24393   2.625   3.925   6.900 -0.6484 -0.0049 -0.0933
 7648SOL    HW124394   2.703   3.910   6.847 -1.3659  1.5211 -1.6847
 7648SOL    HW224395   2.564   3.969   6.841 -1.9363  0.7179  1.6868
 7649SOL     OW24396   5.364   0.479   6.345  0.1417 -0.5371 -0.1877
 7649SOL    HW124397   5.319   0.409   6.297  1.0653 -0.1645 -1.6453
 7649SOL    HW224398   5.432   0.509   6.286  0.2675  1.0815  0.7286
 7650SOL     OW24399   4.295   3.506   5.227  0.1483  0.1403 -0.5243
 7650SOL    HW124400   4.261   3.417   5.240  0.3039  0.0180 -0.9238
 7650SOL    HW224401   4.314   3.510   5.133 -1.2305  1.0747 -0.7964
 7651SOL     OW24402   5.397   6.005   6.339  0.0879  0.0686  0.0183
 7651SOL    HW124403   5.393   6.069   6.410  0.3146  0.4898 -0.3411
 7651SOL    HW224404   5.486   5.969   6.345  0.3156  0.5492 -0.4308
 7652SOL     OW24405   0.991   2.465   0.271  0.1275  0.0652  0.0399
 7652SOL    HW124406   0.939   2.440   0.347  0.5872  0.3868  0.4668
 7652SOL    HW224407   0.929   2.464   0.198 -0.1093 -1.1591  0.2463
 7653SOL     OW24408   4.432   0.225   3.384  0.2046  0.0119  0.0460
 7653SOL    HW124409   4.521   0.259   3.395  0.4891 -0.3707 -0.9694
 7653SOL    HW224410   4.440   0.131   3.402  0.3234 -0.2967 -1.4548
 7654SOL     OW24411   2.242   5.185   5.097  0.3582 -0.4845 -0.1251
 7654SOL    HW124412   2.222   5.165   5.005 -1.3945  1.9839 -0.3785
 7654SOL    HW224413   2.195   5.117   5.146  0.4599 -1.2185 -0.9961
 7655SOL     OW24414   1.845   0.796   1.193  0.2044 -0.0901 -0.0164
 7655SOL    HW124415   1.912   0.843   1.243 -0.1058 -0.5827  0.8951
 7655SOL    HW224416   1.890   0.717   1.161  0.1974 -0.1778  0.1846
 7656SOL     OW24417   6.073   4.085   4.071 -0.6410  0.1809 -0.5160
 7656SOL    HW124418   6.055   3.993   4.050 -1.4376  0.5958 -1.6992
 7656SOL    HW224419   6.162   4.084   4.105 -0.7931 -1.0942 -0.0817
 7657SOL     OW24420   5.568   1.663   7.108  0.4239 -0.2277 -0.0149
 7657SOL    HW124421   5.615   1.744   7.124  1.2706 -0.7490  0.1938
 7657SOL    HW224422   5.578   1.613   7.189  0.7402 -0.9376 -0.4815
 7658SOL     OW24423   3.800   3.142   5.829  0.8026 -0.5131 -0.6417
 7658SOL    HW124424   3.865   3.101   5.886  1.3391  1.5894  0.3604
 7658SOL    HW224425   3.810   3.236   5.844 -0.8404 -0.0002 -2.2846
 7659SOL     OW24426   6.081   1.033   2.348  0.5049 -0.1757 -0.0021
 7659SOL    HW124427   6.092   0.952   2.397  0.8913 -0.5153 -0.6371
 7659SOL    HW224428   5.996   1.066   2.377  0.5343 -0.5842  0.5759
 7660SOL     OW24429   5.939   4.923   2.147 -0.6627  0.2538 -0.4261
 7660SOL    HW124430   5.983   4.884   2.223  1.4316  0.0268 -1.6588
 7660SOL    HW224431   5.950   5.017   2.159 -1.2041  0.2557  0.0434
 7661SOL     OW24432   1.537   6.760   6.953 -0.2524  0.3630  0.1913
 7661SOL    HW124433   1.455   6.790   6.914 -0.0095 -0.7877 -1.2947
 7661SOL    HW224434   1.525   6.666   6.966  1.2272 -0.0607 -1.1819
 7662SOL     OW24435   4.938   5.793   0.763  0.0339  0.4657 -0.6359
 7662SOL    HW124436   5.028   5.786   0.795  0.8918 -2.0948 -3.1434
 7662SOL    HW224437   4.941   5.861   0.696  0.3273 -0.1291 -1.2408
 7663SOL     OW24438   3.836   7.023   6.515  0.2169 -0.0284  0.7354
 7663SOL    HW124439   3.854   6.960   6.585 -0.1968  0.5936  1.4105
 7663SOL    HW224440   3.744   7.047   6.527 -0.2702 -0.9025 -0.8378
 7664SOL     OW24441   0.569   6.991   2.004  0.0941  0.1950 -0.0334
 7664SOL    HW124442   0.651   7.006   1.957  0.0444 -2.0775 -0.9320
 7664SOL    HW224443   0.593   7.002   2.097  1.4865 -0.6293 -0.2662
 7665SOL     OW24444   0.355   5.431   1.179 -0.1759  0.2171 -0.0161
 7665SOL    HW124445   0.319   5.451   1.093  2.1405  0.3580 -1.0168
 7665SOL    HW224446   0.448   5.451   1.172  0.3053 -0.8978  2.1693
 7666SOL     OW24447   2.338   3.985   1.047  0.2587 -0.0555  0.0012
 7666SOL    HW124448   2.431   4.005   1.038  0.0153  1.4509  0.4700
 7666SOL    HW224449   2.335   3.897   1.084  1.5039  0.0178  0.3136
 7667SOL     OW24450   1.380   2.140   2.810  0.4292 -0.0884  0.1756
 7667SOL    HW124451   1.287   2.117   2.818  0.1149  1.0123 -0.0749
 7667SOL    HW224452   1.393   2.206   2.879  0.8638  0.2169 -0.1991
 7668SOL     OW24453   4.830   7.039   3.776 -0.4193  0.0764 -0.2963
 7668SOL    HW124454   4.747   7.004   3.742 -0.2879  1.6432 -2.5065
 7668SOL    HW224455   4.885   7.049   3.698  1.7129 -0.4346  1.0447
 7669SOL     OW24456   0.404   0.899   1.690 -0.2158  0.0105  0.5595
 7669SOL    HW124457   0.458   0.824   1.717 -0.9919 -0.3665  1.1081
 7669SOL    HW224458   0.391   0.886   1.597  1.0352  0.3710  0.3140
 7670SOL     OW24459   4.425   4.547   2.027 -0.3349  0.1430  0.0464
 7670SOL    HW124460   4.361   4.476   2.032 -0.0776 -0.0441  3.4843
 7670SOL    HW224461   4.448   4.565   2.119  1.9804  2.5385 -0.8580
 7671SOL     OW24462   2.167   1.322   1.963 -0.2203  0.4194 -0.4226
 7671SOL    HW124463   2.092   1.363   1.920 -0.8223  0.1022  0.2957
 7671SOL    HW224464   2.128   1.260   2.025  0.6480 -0.9434 -1.1875
 7672SOL     OW24465   5.521   1.195   3.092  0.6151  0.3599  0.3975
 7672SOL    HW124466   5.555   1.120   3.141  0.0540  1.1608  2.1071
 7672SOL    HW224467   5.586   1.211   3.024  0.5871 -1.8430 -0.2136
 7673SOL     OW24468   2.815   3.045   6.698 -0.1450 -0.4304  0.2235
 7673SOL    HW124469   2.802   3.044   6.793 -0.0606 -0.4436  0.2346
 7673SOL    HW224470   2.745   2.989   6.664 -2.1367  2.0085  0.0324
 7674SOL     OW24471   5.546   4.222   6.963  0.1874  0.0981  0.9096
 7674SOL    HW124472   5.625   4.244   6.914  0.4215  1.3498  1.7971
 7674SOL    HW224473   5.506   4.307   6.983 -1.4068 -0.5156  0.4585
 7675SOL     OW24474   6.196   5.479   2.064  0.0916  0.0178 -0.1502
 7675SOL    HW124475   6.223   5.528   2.141  0.0085 -0.2036  0.0208
 7675SOL    HW224476   6.173   5.392   2.097 -2.9607  0.8103  0.0861
 7676SOL     OW24477   5.485   0.865   0.110  0.1483  0.1831  0.2228
 7676SOL    HW124478   5.523   0.943   0.069 -0.1857  0.3460  0.2209
 7676SOL    HW224479   5.401   0.895   0.145  0.8198  0.2943  1.8422
 7677SOL     OW24480   4.604   6.521   0.926  0.1537 -0.3782  0.4112
 7677SOL    HW124481   4.646   6.548   0.845  3.2161  0.1500  2.0594
 7677SOL    HW224482   4.511   6.544   0.914  0.5137 -0.2506 -2.8393
 7678SOL     OW24483   4.905   1.543   3.673 -0.0099  0.4403 -0.0338
 7678SOL    HW124484   4.840   1.596   3.627  1.2566  1.9548 -0.1319
 7678SOL    HW224485   4.960   1.507   3.604 -0.3548 -0.3553  0.0893
 7679SOL     OW24486   4.595   3.795   6.615  0.9127 -0.8500  0.4672
 7679SOL    HW124487   4.650   3.826   6.542  1.6647  1.0402  1.7408
 7679SOL    HW224488   4.518   3.851   6.612  0.0556 -2.0260  0.0224
 7680SOL     OW24489   2.940   1.821   5.840 -0.1070 -0.5954  0.0199
 7680SOL    HW124490   2.979   1.908   5.840 -2.6526  0.6267 -0.1562
 7680SOL    HW224491   2.958   1.786   5.753  2.7580 -1.2007  0.7668
 7681SOL     OW24492   6.581   2.008   1.872  0.1117  0.4103 -0.4187
 7681SOL    HW124493   6.617   1.977   1.789 -2.3001 -2.1874 -0.6420
 7681SOL    HW224494   6.621   1.951   1.938  0.6857  1.2933  0.0033
 7682SOL     OW24495   0.709   2.922   0.931 -0.4144  0.3670 -0.1402
 7682SOL    HW124496   0.765   2.976   0.986  1.3074 -1.8525  0.4570
 7682SOL    HW224497   0.752   2.921   0.846  0.0960 -0.7536  0.1119
 7683SOL     OW24498   0.768   1.216   0.033  0.3882  0.3931 -0.1729
 7683SOL    HW124499   0.762   1.134  -0.017 -0.1699  0.1082  0.3497
 7683SOL    HW224500   0.816   1.193   0.112  1.2486  0.8403 -0.5484
 7684SOL     OW24501   0.476   6.302   2.213  0.1738 -0.1376 -0.1571
 7684SOL    HW124502   0.519   6.377   2.253 -1.1344  0.1719  0.7471
 7684SOL    HW224503   0.395   6.337   2.176 -0.0426 -0.9494 -0.4910
 7685SOL     OW24504   2.095   4.522   0.246 -0.3283 -0.4187  0.4319
 7685SOL    HW124505   2.017   4.520   0.191  0.1123 -1.7100 -0.1729
 7685SOL    HW224506   2.158   4.575   0.197 -1.0016  1.1871  1.2201
 7686SOL     OW24507   6.420   0.595   6.214 -0.5070  0.4342  0.1586
 7686SOL    HW124508   6.491   0.605   6.278 -0.4290 -0.0691  0.1545
 7686SOL    HW224509   6.446   0.520   6.161 -1.2619 -0.0403  0.4482
 7687SOL     OW24510   3.720   1.612   0.045 -0.0966 -0.0814  0.3116
 7687SOL    HW124511   3.655   1.569   0.101  0.2343  1.5455  2.0415
 7687SOL    HW224512   3.705   1.706   0.058  1.9147  0.3386 -0.0327
 7688SOL     OW24513   4.328   2.991   2.396 -0.9468 -0.0521  0.2208
 7688SOL    HW124514   4.313   2.896   2.399 -1.9265  0.1083  1.0635
 7688SOL    HW224515   4.242   3.029   2.416 -0.8768  1.0472 -1.3993
 7689SOL     OW24516   3.641   1.867   1.315  1.1223  0.0406 -0.0595
 7689SOL    HW124517   3.583   1.921   1.261 -2.4163 -3.7890 -0.6288
 7689SOL    HW224518   3.697   1.821   1.252 -0.0207 -1.2224 -0.2075
 7690SOL     OW24519   0.375   3.910   5.936 -0.1697 -0.0357  0.7328
 7690SOL    HW124520   0.315   3.976   5.901  0.5461  0.9056  1.2609
 7690SOL    HW224521   0.351   3.902   6.028  2.0355  2.1618  1.6142
 7691SOL     OW24522   0.160   7.023   0.874 -0.2367 -0.1771  0.2565
 7691SOL    HW124523   0.198   7.076   0.803  0.2463  0.0603  0.6869
 7691SOL    HW224524   0.190   6.934   0.856 -0.3370 -0.1640  0.0156
 7692SOL     OW24525   1.126   2.950   4.158  0.6252 -0.4217  0.3226
 7692SOL    HW124526   1.147   2.879   4.097  1.0907 -0.5247  0.5924
 7692SOL    HW224527   1.099   3.022   4.102 -0.2701 -0.9438  0.0632
 7693SOL     OW24528   0.913   6.348   0.784  0.3650  0.2413 -0.1855
 7693SOL    HW124529   0.833   6.378   0.742 -1.1540 -0.2648  2.1410
 7693SOL    HW224530   0.977   6.417   0.767 -0.8604  1.1655 -1.1997
 7694SOL     OW24531   6.606   4.565   6.595 -0.1035 -0.2732  0.1819
 7694SOL    HW124532   6.683   4.621   6.605  0.3185 -0.7511 -0.3827
 7694SOL    HW224533   6.569   4.559   6.683  0.9088 -0.6281  0.5876
 7695SOL     OW24534   3.051   2.744   6.756 -0.6339 -0.4056 -0.3175
 7695SOL    HW124535   3.061   2.836   6.730 -0.1959 -0.7071 -1.2306
 7695SOL    HW224536   3.092   2.694   6.685 -1.1739 -1.3229  0.0073
 7696SOL     OW24537   4.510   6.971   6.337  0.5617  0.5275  0.7014
 7696SOL    HW124538   4.475   7.059   6.348  2.3331  1.3902 -0.0819
 7696SOL    HW224539   4.517   6.959   6.242  1.1306 -0.1071  0.8088
 7697SOL     OW24540   2.902   3.906   2.399  0.6453 -0.1537  0.4588
 7697SOL    HW124541   2.983   3.865   2.370 -0.4967 -1.5718 -0.9663
 7697SOL    HW224542   2.879   3.860   2.480  0.0402 -1.5055 -0.4445
 7698SOL     OW24543   1.631   0.790   6.512 -0.0540  0.0082  0.0956
 7698SOL    HW124544   1.665   0.858   6.454 -2.3628  1.0911 -0.0939
 7698SOL    HW224545   1.591   0.726   6.453  0.9031 -0.8544  0.3481
 7699SOL     OW24546   3.961   1.250   6.349 -0.5048  0.0533  0.1177
 7699SOL    HW124547   4.038   1.278   6.398 -0.3946 -1.0604  0.6305
 7699SOL    HW224548   3.908   1.329   6.340  0.9688  0.9805 -0.7964
 7700SOL     OW24549   4.777   2.435   2.449 -0.1654 -0.3974  0.2539
 7700SOL    HW124550   4.811   2.473   2.367  0.4389  0.2746  0.8066
 7700SOL    HW224551   4.686   2.413   2.429 -0.3207  0.6926 -0.3056
 7701SOL     OW24552   1.338   0.414   2.668  0.1667 -0.8244  0.5995
 7701SOL    HW124553   1.306   0.502   2.687 -1.1651 -1.5254  1.7549
 7701SOL    HW224554   1.413   0.428   2.610 -0.7771  0.9972 -0.2565
 7702SOL     OW24555   5.651   3.888   6.176  0.0703  0.0803 -0.5465
 7702SOL    HW124556   5.579   3.894   6.239 -0.7548  0.5189 -1.5042
 7702SOL    HW224557   5.723   3.850   6.226  0.1456  2.3938  1.2831
 7703SOL     OW24558   2.199   2.525   6.904 -0.7049 -0.2317  0.0879
 7703SOL    HW124559   2.261   2.597   6.915 -1.0134  0.1647 -0.6805
 7703SOL    HW224560   2.113   2.564   6.920 -0.7744 -0.7508  1.0245
 7704SOL     OW24561   3.117   6.160   6.645 -0.1537 -0.2900  0.1113
 7704SOL    HW124562   3.121   6.185   6.553  1.7776  0.4141  0.3374
 7704SOL    HW224563   3.173   6.224   6.690  1.3320 -2.3356  1.3581
 7705SOL     OW24564   2.402   4.417   1.458  0.2535 -0.6086 -0.5295
 7705SOL    HW124565   2.404   4.328   1.423 -0.1722  0.4572 -3.5262
 7705SOL    HW224566   2.310   4.443   1.452  0.3016 -0.0859  0.7456
 7706SOL     OW24567   3.381   5.753   3.998 -0.3962  0.3733  0.6196
 7706SOL    HW124568   3.373   5.735   4.091  0.9823  0.4663  0.7789
 7706SOL    HW224569   3.319   5.825   3.982  0.6659  1.6238  1.8695
 7707SOL     OW24570   5.717   1.215   6.110  0.1644  0.0894  0.2961
 7707SOL    HW124571   5.774   1.241   6.038  1.4706  0.5023  1.4347
 7707SOL    HW224572   5.703   1.122   6.097 -1.5592  0.5629 -1.7770
 7708SOL     OW24573   1.810   5.091   1.688  0.4097 -0.6076  0.0781
 7708SOL    HW124574   1.857   5.169   1.717 -1.1144  0.3745  0.0272
 7708SOL    HW224575   1.877   5.022   1.686  1.5871  0.4490  1.0766
 7709SOL     OW24576   2.409   4.996   1.410 -0.2522 -0.2217 -0.3214
 7709SOL    HW124577   2.400   4.913   1.458  2.5748  0.0896  0.9586
 7709SOL    HW224578   2.383   5.063   1.474  2.4504  0.1172  0.5669
 7710SOL     OW24579   5.612   6.671   4.517  0.3826  0.5789 -0.6056
 7710SOL    HW124580   5.571   6.600   4.566  2.1120  0.8893  1.4230
 7710SOL    HW224581   5.543   6.736   4.508 -0.1561  0.2767  0.9744
 7711SOL     OW24582   1.134   1.014   5.418 -0.0096 -0.8348 -0.2076
 7711SOL    HW124583   1.094   0.929   5.401 -1.3889 -0.2871  0.1687
 7711SOL    HW224584   1.067   1.063   5.465  0.8038  0.4238 -0.3136
 7712SOL     OW24585   6.812   3.356   3.836 -0.0013  0.4489  0.5254
 7712SOL    HW124586   6.891   3.405   3.813 -0.8797  1.1522 -1.2418
 7712SOL    HW224587   6.753   3.420   3.875 -0.9637  0.7718 -1.3320
 7713SOL     OW24588   1.997   5.432   2.006 -0.0497 -0.6834 -0.2357
 7713SOL    HW124589   1.951   5.420   1.922  1.1933 -1.2698 -0.8670
 7713SOL    HW224590   2.072   5.486   1.984  0.5979 -1.3053  0.3851
 7714SOL     OW24591   4.585   0.185   0.300 -0.0154 -0.0034  0.2606
 7714SOL    HW124592   4.669   0.192   0.345  1.2180  0.9069 -2.0203
 7714SOL    HW224593   4.607   0.150   0.214 -2.3797 -2.5435  0.5645
 7715SOL     OW24594   3.186   0.473   4.870  0.0758 -0.1244 -0.2418
 7715SOL    HW124595   3.130   0.466   4.792 -2.1596 -3.0678  1.4134
 7715SOL    HW224596   3.133   0.522   4.933  0.9323  0.2893  0.1717
 7716SOL     OW24597   5.422   4.500   1.650 -0.1667 -0.5129  0.3159
 7716SOL    HW124598   5.357   4.458   1.707  0.5205 -0.9919  0.7647
 7716SOL    HW224599   5.408   4.594   1.664  0.6449 -0.6101  2.0739
 7717SOL     OW24600   2.562   3.687   2.623  0.3292  0.3486 -0.0786
 7717SOL    HW124601   2.633   3.622   2.625 -0.0792 -0.1112 -0.3361
 7717SOL    HW224602   2.582   3.747   2.694  0.1016 -0.7032  0.8944
 7718SOL     OW24603   1.301   5.415   0.773  0.2555  0.0955  0.6598
 7718SOL    HW124604   1.282   5.456   0.689 -1.3386 -2.7032 -0.4867
 7718SOL    HW224605   1.396   5.402   0.772  0.5245  1.8953  0.2336
 7719SOL     OW24606   4.056   2.577   2.638  0.3338  0.4452 -0.0465
 7719SOL    HW124607   3.970   2.608   2.668  0.7033  0.9420  0.5207
 7719SOL    HW224608   4.046   2.481   2.632 -0.0375  0.4285  0.7318
 7720SOL     OW24609   4.504   4.781   3.533  0.0497 -0.7277  0.6862
 7720SOL    HW124610   4.535   4.751   3.619 -0.9026 -2.0587  0.6003
 7720SOL    HW224611   4.422   4.826   3.552  0.1865 -0.4199  0.5438
 7721SOL     OW24612   6.813   2.805   2.524  0.6352 -0.2552  0.1927
 7721SOL    HW124613   6.860   2.723   2.514  0.1754 -0.7780  1.9449
 7721SOL    HW224614   6.841   2.838   2.610 -0.2162  0.7243  0.1125
 7722SOL     OW24615   1.804   4.579   5.261  0.2320 -0.8885  0.5105
 7722SOL    HW124616   1.877   4.640   5.276  0.9453 -1.6271  0.1456
 7722SOL    HW224617   1.778   4.596   5.170  0.2200 -0.9027  0.5113
 7723SOL     OW24618   0.629   2.349   4.358 -0.4588  0.5646 -0.4415
 7723SOL    HW124619   0.623   2.345   4.453 -0.0260 -0.1957 -0.4377
 7723SOL    HW224620   0.643   2.258   4.331  1.1350  0.9850 -1.1161
 7724SOL     OW24621   3.873   6.016   0.541  0.0489 -0.7025 -0.3107
 7724SOL    HW124622   3.862   5.931   0.499 -1.6630 -1.4307  1.4503
 7724SOL    HW224623   3.848   6.079   0.474  0.6734 -1.6088 -1.4232
 7725SOL     OW24624   5.258   4.882   6.100  0.2498  0.0481 -0.5352
 7725SOL    HW124625   5.298   4.854   6.018 -0.3248 -1.5427 -0.2950
 7725SOL    HW224626   5.272   4.977   6.101  3.7459 -0.3473 -0.5625
 7726SOL     OW24627   1.121   0.925   2.701 -0.2379  0.0826  0.3190
 7726SOL    HW124628   1.153   0.977   2.627 -0.4158 -1.2754 -0.7702
 7726SOL    HW224629   1.081   0.988   2.760 -0.3495  1.1924 -0.8975
 7727SOL     OW24630   4.597   2.583   5.937  0.5435 -0.4067 -0.0130
 7727SOL    HW124631   4.643   2.517   5.989  2.0794  0.7704  0.1732
 7727SOL    HW224632   4.611   2.556   5.846 -1.9294 -2.3225  0.0533
 7728SOL     OW24633   4.383   5.612   0.597  0.5792 -0.2340 -0.8059
 7728SOL    HW124634   4.460   5.669   0.594 -1.1865  2.2962 -1.2196
 7728SOL    HW224635   4.314   5.666   0.634 -0.7217 -2.8613  0.9137
 7729SOL     OW24636   3.772   6.251   5.381  0.4745 -0.4731  0.8689
 7729SOL    HW124637   3.821   6.259   5.463  1.6714  1.8042 -0.0032
 7729SOL    HW224638   3.838   6.235   5.314  0.0733  1.9738 -0.2346
 7730SOL     OW24639   3.690   0.061   4.710 -1.0122  0.3732  0.4929
 7730SOL    HW124640   3.689   0.089   4.801 -0.4577  0.5490  0.4494
 7730SOL    HW224641   3.635  -0.017   4.707  1.0175 -1.1808  1.4780
 7731SOL     OW24642   4.614   4.156   2.790  0.3018  0.1559  0.4129
 7731SOL    HW124643   4.639   4.107   2.868 -0.9543  0.7640  1.2328
 7731SOL    HW224644   4.527   4.191   2.811  0.2165  0.8592 -1.0156
 7732SOL     OW24645   5.788   3.086   6.137  0.1658 -0.3106 -0.5408
 7732SOL    HW124646   5.730   3.013   6.116 -1.4739  1.3723 -2.3508
 7732SOL    HW224647   5.835   3.104   6.055 -0.8260  1.7238 -0.7369
 7733SOL     OW24648   7.079   2.501   5.304 -0.1142  0.1076 -0.0696
 7733SOL    HW124649   7.137   2.446   5.356  0.0498 -0.3671 -0.7452
 7733SOL    HW224650   7.000   2.509   5.358 -0.8169 -2.1784 -0.6261
 7734SOL     OW24651   1.927   5.722   2.929  0.1219 -0.0351 -0.4583
 7734SOL    HW124652   2.006   5.775   2.914  0.0331 -0.1368 -1.3446
 7734SOL    HW224653   1.886   5.761   3.006  0.8744  0.2156 -0.1719
 7735SOL     OW24654   3.856   2.960   2.355  0.2780 -0.2756 -0.3295
 7735SOL    HW124655   3.842   2.865   2.355  0.7320 -0.3994 -2.8645
 7735SOL    HW224656   3.788   2.994   2.297  0.1545  0.9828  0.5061
 7736SOL     OW24657   1.565   0.778   2.023 -0.3786 -0.3698  0.1476
 7736SOL    HW124658   1.611   0.714   2.077  0.1937 -0.0314  0.0670
 7736SOL    HW224659   1.496   0.728   1.981 -0.6081 -0.7135  0.9123
 7737SOL     OW24660   2.865   6.965   3.397  0.1464  0.3750  0.4466
 7737SOL    HW124661   2.862   6.900   3.467  0.9456  0.8689  0.9642
 7737SOL    HW224662   2.884   6.914   3.318 -0.8160 -0.1921  0.5650
 7738SOL     OW24663   5.337   2.725   4.576  0.0779  0.0730  0.2379
 7738SOL    HW124664   5.417   2.778   4.580 -0.1514  0.4214  0.2726
 7738SOL    HW224665   5.351   2.666   4.501  0.3396  0.1782  0.2026
 7739SOL     OW24666   3.925   2.171   3.715 -0.1904 -0.5680 -0.1168
 7739SOL    HW124667   3.919   2.231   3.642 -1.5161  2.8278  2.5009
 7739SOL    HW224668   3.994   2.110   3.691  2.0748  2.6656 -2.6171
 7740SOL     OW24669   2.550   5.165   4.533 -0.4947  0.0993 -0.4200
 7740SOL    HW124670   2.536   5.182   4.440 -0.6668  0.8606 -0.2687
 7740SOL    HW224671   2.636   5.203   4.552  0.0007 -0.9727 -0.4824
 7741SOL     OW24672   4.636   3.599   1.134  0.0086  0.1153  0.5580
 7741SOL    HW124673   4.704   3.667   1.136  0.1246  0.0254 -0.3056
 7741SOL    HW224674   4.554   3.648   1.128  0.1081  0.1778 -0.3708
 7742SOL     OW24675   6.038   6.876   5.687  0.3903  0.0987  0.3076
 7742SOL    HW124676   6.066   6.802   5.634 -0.9359 -1.0366  1.1331
 7742SOL    HW224677   6.080   6.952   5.646  0.1061 -0.8229 -1.8492
 7743SOL     OW24678   2.540   4.669   5.533 -0.1169  0.0508  0.2446
 7743SOL    HW124679   2.538   4.764   5.533 -0.0361  0.1178 -2.1154
 7743SOL    HW224680   2.615   4.646   5.588 -2.2348  1.1188  3.9120
 7744SOL     OW24681   5.180   0.074   4.545 -0.2862  0.4811  0.2151
 7744SOL    HW124682   5.217   0.056   4.459 -1.3884 -1.2051  0.0480
 7744SOL    HW224683   5.088   0.095   4.528 -0.0132  2.4518  0.8200
 7745SOL     OW24684   0.737   0.511   6.354  0.2320 -0.5972 -0.3967
 7745SOL    HW124685   0.828   0.528   6.381  0.1113 -1.7312  0.8462
 7745SOL    HW224686   0.728   0.556   6.270  1.0476  2.0278  0.8167
 7746SOL     OW24687   4.710   2.347   6.031  1.0047  0.1388  0.0290
 7746SOL    HW124688   4.767   2.270   6.021 -2.1020 -2.2359 -0.9353
 7746SOL    HW224689   4.623   2.310   6.044 -0.6860  3.5565 -0.6478
 7747SOL     OW24690   0.567   3.556   1.619 -0.0415  0.1625  0.3411
 7747SOL    HW124691   0.496   3.573   1.557  1.4636  0.9109 -1.2835
 7747SOL    HW224692   0.635   3.514   1.566  1.0185  0.1549  1.6562
 7748SOL     OW24693   0.328   1.427   6.154  0.2798  0.7704  0.4309
 7748SOL    HW124694   0.393   1.474   6.205  1.5222  1.3916 -1.6246
 7748SOL    HW224695   0.276   1.495   6.110 -0.6732  0.2578  0.7224
 7749SOL     OW24696   6.709   6.965   5.263 -0.3677 -0.1018 -0.1064
 7749SOL    HW124697   6.732   6.873   5.260 -0.3259 -0.0623 -1.9710
 7749SOL    HW224698   6.769   7.008   5.202 -2.0333  0.7479 -1.2469
 7750SOL     OW24699   5.509   0.405   1.505 -0.0181  0.4037  0.1270
 7750SOL    HW124700   5.603   0.425   1.503 -0.2398  1.4646 -1.7139
 7750SOL    HW224701   5.505   0.312   1.524  1.6555 -0.6366 -3.7198
 7751SOL     OW24702   3.645   1.238   7.139 -0.1434 -0.3307 -0.7824
 7751SOL    HW124703   3.734   1.255   7.108  0.0023  0.7133  0.1389
 7751SOL    HW224704   3.648   1.148   7.172  0.3816 -0.5352 -1.3654
 7752SOL     OW24705   1.656   5.129   6.114  0.4230  0.0058 -0.0498
 7752SOL    HW124706   1.696   5.205   6.157  1.0706  0.7536 -1.8738
 7752SOL    HW224707   1.724   5.097   6.054 -1.1454  0.4186 -2.1563
 7753SOL     OW24708   3.119   3.939   4.328 -0.3547 -0.1222  0.1911
 7753SOL    HW124709   3.185   3.884   4.286  1.5174 -0.3926  3.1973
 7753SOL    HW224710   3.165   4.022   4.346 -0.3970 -0.6011  3.0790
 7754SOL     OW24711   2.549   5.471   1.900 -0.0307  0.3847 -0.2708
 7754SOL    HW124712   2.606   5.526   1.953  0.9928  0.3808 -1.3090
 7754SOL    HW224713   2.491   5.427   1.962  1.9253 -0.5664  0.9746
 7755SOL     OW24714   6.619   2.616   2.390 -0.0774  0.4892 -0.2764
 7755SOL    HW124715   6.640   2.594   2.300 -1.7155 -1.5827 -0.2238
 7755SOL    HW224716   6.697   2.661   2.422  0.8849  0.4917 -2.4442
 7756SOL     OW24717   5.234   2.152   5.737  0.0069  0.4803 -0.7166
 7756SOL    HW124718   5.199   2.111   5.816 -0.2488  0.9795 -0.5634
 7756SOL    HW224719   5.237   2.246   5.758 -1.1522  0.7717 -1.6809
 7757SOL     OW24720   2.653   6.841   4.934 -0.3521  0.1438 -0.8224
 7757SOL    HW124721   2.575   6.836   4.879  0.2210 -1.3153 -1.5763
 7757SOL    HW224722   2.670   6.751   4.961 -0.2126  0.7391  1.2249
 7758SOL     OW24723   2.592   2.940   6.569 -0.8468 -0.2070 -0.2709
 7758SOL    HW124724   2.580   2.894   6.485  1.6908 -1.4878 -0.0071
 7758SOL    HW224725   2.553   2.881   6.634 -1.3539  0.0215 -0.3620
 7759SOL     OW24726   3.079   6.958   6.003 -0.4752  0.3064  0.6216
 7759SOL    HW124727   2.989   6.957   6.036 -0.2034  0.9715  1.4063
 7759SOL    HW224728   3.117   6.877   6.036 -0.0058  1.2641  2.5930
 7760SOL     OW24729   5.925   3.107   1.326  0.1199 -0.6290 -0.2294
 7760SOL    HW124730   5.961   3.150   1.403  1.6172 -0.1087 -1.1832
 7760SOL    HW224731   5.868   3.172   1.286 -0.3193 -0.7513  0.1873
 7761SOL     OW24732   1.706   1.086   3.326 -0.2973 -0.3390  0.0832
 7761SOL    HW124733   1.613   1.082   3.348 -0.9337  0.1835 -2.2742
 7761SOL    HW224734   1.709   1.093   3.231  2.1824 -0.6059  0.0580
 7762SOL     OW24735   1.393   2.984   2.727  0.3326  0.0471  0.3427
 7762SOL    HW124736   1.327   2.972   2.660 -0.1907 -1.2594  1.0556
 7762SOL    HW224737   1.344   2.999   2.808  0.9170  0.3217  0.6564
 7763SOL     OW24738   0.921   0.783   2.603  0.0628  0.4920  0.3275
 7763SOL    HW124739   0.855   0.801   2.670  0.1830 -0.5357  0.7398
 7763SOL    HW224740   1.005   0.804   2.645  0.1020  0.3694  0.3104
 7764SOL     OW24741   2.565   5.665   2.421  0.3219  0.0053  0.0380
 7764SOL    HW124742   2.655   5.681   2.446  0.4433 -0.0561 -0.3517
 7764SOL    HW224743   2.515   5.671   2.503  1.0979 -3.1768  0.8848
 7765SOL     OW24744   6.426   6.027   5.815 -0.5421  0.4191  0.3982
 7765SOL    HW124745   6.371   5.961   5.856 -1.9273  0.5606 -1.1029
 7765SOL    HW224746   6.396   6.110   5.853 -0.2738  0.3687  0.7237
 7766SOL     OW24747   4.254   1.299   2.567  0.0318 -0.1817  0.1144
 7766SOL    HW124748   4.303   1.272   2.644  0.4477 -1.3130 -0.5191
 7766SOL    HW224749   4.173   1.248   2.571 -0.7026  1.0025  0.6753
 7767SOL     OW24750   1.788   1.696   2.343  0.7693  0.2561 -0.1373
 7767SOL    HW124751   1.860   1.741   2.300 -0.0134  0.5697 -1.1821
 7767SOL    HW224752   1.826   1.659   2.423  2.6125 -1.3926 -1.6627
 7768SOL     OW24753   0.744   2.046   2.816 -0.0873 -0.4498 -0.4524
 7768SOL    HW124754   0.675   2.109   2.835 -0.9838 -1.1180 -1.3795
 7768SOL    HW224755   0.773   2.015   2.902 -0.1922  0.6137 -0.0176
 7769SOL     OW24756   2.997   6.903   1.293  0.0288  0.4260 -0.6322
 7769SOL    HW124757   2.920   6.845   1.292  1.2560 -1.2932  0.0924
 7769SOL    HW224758   3.034   6.893   1.205  0.6189 -0.4401 -0.2919
 7770SOL     OW24759   3.693   2.071   1.033 -0.2345  0.0903  0.1281
 7770SOL    HW124760   3.698   1.976   1.024 -1.2170 -0.0511  0.8198
 7770SOL    HW224761   3.768   2.093   1.088  0.9313 -0.0587 -1.3406
 7771SOL     OW24762   4.866   0.301   3.877  0.2512 -0.3316  0.4224
 7771SOL    HW124763   4.776   0.270   3.867  0.0371  0.3007  0.3233
 7771SOL    HW224764   4.860   0.373   3.939  0.7224 -0.4254  0.5791
 7772SOL     OW24765   4.083   3.247   4.898 -0.1873  0.1511  0.2977
 7772SOL    HW124766   4.046   3.161   4.883 -0.2832 -0.1597  2.0980
 7772SOL    HW224767   4.009   3.307   4.890 -0.1680  0.0562 -0.7033
 7773SOL     OW24768   1.730   4.678   2.282  0.2424 -0.3437  0.2018
 7773SOL    HW124769   1.720   4.590   2.245  1.2257 -0.2146 -0.3792
 7773SOL    HW224770   1.804   4.716   2.235 -0.0751  0.7427  0.5643
 7774SOL     OW24771   5.303   2.741   6.800  0.0256 -0.5389  0.1321
 7774SOL    HW124772   5.288   2.730   6.706 -0.7772  0.1669  0.1655
 7774SOL    HW224773   5.217   2.729   6.840  0.4620 -1.4087  0.8396
 7775SOL     OW24774   3.544   1.027   3.245  0.3306  0.4220  0.0295
 7775SOL    HW124775   3.606   0.995   3.180 -0.3892 -1.2106  0.0778
 7775SOL    HW224776   3.458   1.002   3.211 -0.0924 -0.0249  1.3366
 7776SOL     OW24777   6.868   0.328   3.239 -0.4489 -0.0447 -0.1106
 7776SOL    HW124778   6.919   0.257   3.199 -2.2624 -1.7312  0.3758
 7776SOL    HW224779   6.900   0.408   3.197  0.5555 -1.3140 -1.8966
 7777SOL     OW24780   2.765   0.246   6.213  0.2366  0.0010 -0.4498
 7777SOL    HW124781   2.737   0.156   6.193 -0.0547  0.3798 -1.8616
 7777SOL    HW224782   2.771   0.248   6.309  0.4649 -1.5839 -0.3945
 7778SOL     OW24783   3.221   4.903   2.436  0.8547 -0.5585 -0.1777
 7778SOL    HW124784   3.132   4.925   2.461  0.7245 -1.5373  0.2772
 7778SOL    HW224785   3.233   4.943   2.350 -0.4545 -1.4214 -0.7926
 7779SOL     OW24786   1.195   2.277   3.371  0.4891  0.1274  0.7887
 7779SOL    HW124787   1.188   2.285   3.276  2.7894 -1.6348  0.3970
 7779SOL    HW224788   1.106   2.257   3.400 -0.5679  2.2069 -0.7506
 7780SOL     OW24789   2.127   5.090   1.740 -0.3388  0.3830 -0.3823
 7780SOL    HW124790   2.070   5.122   1.810 -1.1987  1.7846 -1.6628
 7780SOL    HW224791   2.205   5.145   1.746  0.1735 -0.3874  0.2793
 7781SOL     OW24792   6.760   0.954   6.631 -0.4171  0.1445 -0.2684
 7781SOL    HW124793   6.841   0.906   6.646 -0.4742  0.4463  1.2143
 7781SOL    HW224794   6.758   1.019   6.702 -1.2993  1.0248 -1.0725
 7782SOL     OW24795   0.344   5.504   2.044 -0.4788 -0.4013 -0.0593
 7782SOL    HW124796   0.439   5.496   2.036 -0.6460 -1.5617 -1.1385
 7782SOL    HW224797   0.323   5.456   2.124 -0.0605  0.9123  0.8814
 7783SOL     OW24798   2.436   6.354   4.803  0.1140  0.2624  0.2243
 7783SOL    HW124799   2.417   6.389   4.890 -1.1511 -1.0665  0.5452
 7783SOL    HW224800   2.368   6.391   4.746 -2.3628 -2.7658  0.9135
 7784SOL     OW24801   2.137   2.272   4.547 -1.0555 -0.2165 -0.5366
 7784SOL    HW124802   2.186   2.237   4.622 -0.6627  1.0222 -0.1847
 7784SOL    HW224803   2.054   2.223   4.548 -1.1733 -0.0530  0.8897
 7785SOL     OW24804   6.165   2.458   0.260  0.1961 -0.2848 -0.3276
 7785SOL    HW124805   6.099   2.500   0.204 -0.5795 -0.7035  0.2483
 7785SOL    HW224806   6.208   2.395   0.203 -0.8769 -1.0132 -0.3631
 7786SOL     OW24807   0.498   4.693   1.582  0.0427 -0.3384 -0.2161
 7786SOL    HW124808   0.494   4.619   1.642  0.9750 -0.6909 -0.5593
 7786SOL    HW224809   0.441   4.759   1.621  1.9783  0.1399  2.0217
 7787SOL     OW24810   0.830   2.181   1.758 -0.4848 -0.2564 -0.3996
 7787SOL    HW124811   0.833   2.260   1.811  0.8555  0.0332 -0.8577
 7787SOL    HW224812   0.885   2.201   1.683  0.4586 -1.8545 -0.1763
 7788SOL     OW24813   0.635   2.766   5.199  0.1656  0.1573  0.1581
 7788SOL    HW124814   0.552   2.798   5.163 -0.4255  1.4053  2.4294
 7788SOL    HW224815   0.613   2.680   5.236  0.4552 -0.5092 -1.1483
 7789SOL     OW24816   0.971   0.206   2.505  0.9023 -0.4335 -0.5288
 7789SOL    HW124817   0.879   0.185   2.494  0.7347  0.3155 -0.6141
 7789SOL    HW224818   0.983   0.288   2.456  1.1166  0.6867  1.3240
 7790SOL     OW24819   5.575   4.186   5.674 -0.4973 -0.1615  0.0848
 7790SOL    HW124820   5.545   4.244   5.603 -2.2485 -0.2715  0.6995
 7790SOL    HW224821   5.587   4.101   5.632  1.6402  0.4639 -0.7247
 7791SOL     OW24822   2.122   5.513   4.060 -0.1574 -0.2475  0.0186
 7791SOL    HW124823   2.126   5.556   4.146  1.3494  0.9210 -0.5778
 7791SOL    HW224824   2.214   5.493   4.040 -0.3939  0.2007 -1.6505
 7792SOL     OW24825   1.340   5.697   4.629  0.1225  0.0314  0.3321
 7792SOL    HW124826   1.321   5.715   4.721 -1.6169 -0.0640  0.0321
 7792SOL    HW224827   1.314   5.778   4.583 -0.4806 -0.4604 -0.2171
 7793SOL     OW24828   4.321   6.785   2.117  0.4888  0.0811  0.1970
 7793SOL    HW124829   4.261   6.858   2.101 -0.0158 -0.3764 -0.0255
 7793SOL    HW224830   4.314   6.769   2.211 -0.5802 -0.6833 -0.0008
 7794SOL     OW24831   6.996   3.314   3.523 -0.0658  0.1761 -0.0522
 7794SOL    HW124832   7.075   3.270   3.491 -0.9552 -2.8927  1.5797
 7794SOL    HW224833   7.016   3.336   3.614 -1.2911 -1.5153  0.6916
 7795SOL     OW24834   2.182   0.654   0.130  0.5359 -0.5079 -0.1409
 7795SOL    HW124835   2.249   0.644   0.061  0.5800 -1.8894  0.0790
 7795SOL    HW224836   2.198   0.581   0.189  0.5539  0.7219  1.4200
 7796SOL     OW24837   3.226   1.647   4.644  0.3124 -0.5261  0.3316
 7796SOL    HW124838   3.241   1.557   4.616  1.6859 -0.3281  0.3890
 7796SOL    HW224839   3.155   1.640   4.708  0.5916 -1.6054  0.5509
 7797SOL     OW24840   0.487   3.549   6.401 -0.5705 -0.2148 -0.5375
 7797SOL    HW124841   0.461   3.560   6.492  1.1386  0.7147 -0.1192
 7797SOL    HW224842   0.452   3.464   6.376 -1.0366 -0.4990  0.9929
 7798SOL     OW24843   3.332   7.108   1.198  0.2397  0.0441  0.1328
 7798SOL    HW124844   3.397   7.099   1.267  0.3088  0.6022  0.1463
 7798SOL    HW224845   3.264   7.164   1.235 -0.4235 -0.7977  0.2332
 7799SOL     OW24846   2.761   5.300   5.313 -0.5224 -0.3778  0.4128
 7799SOL    HW124847   2.809   5.269   5.236 -0.0795  0.8106  0.1798
 7799SOL    HW224848   2.673   5.264   5.303 -1.1678  1.5753 -1.8925
 7800SOL     OW24849   5.494   3.706   3.530  0.0111  0.2759  0.3424
 7800SOL    HW124850   5.476   3.644   3.601 -0.2641  0.4276  0.4045
 7800SOL    HW224851   5.552   3.658   3.471  0.1328  0.1007  0.6000
 7801SOL     OW24852   2.793   4.318   2.028 -0.2573  0.2402 -0.2649
 7801SOL    HW124853   2.838   4.365   2.098 -2.0848  0.9125  0.5100
 7801SOL    HW224854   2.863   4.270   1.984  1.3725  2.0107  0.2255
 7802SOL     OW24855   3.102   4.343   2.469 -0.4821 -0.0730 -0.4385
 7802SOL    HW124856   3.067   4.268   2.516  0.4852 -0.3444 -0.1437
 7802SOL    HW224857   3.105   4.315   2.377  0.5303 -0.6481 -0.2347
 7803SOL     OW24858   6.268   6.055   1.557  0.1259 -0.2376 -0.2024
 7803SOL    HW124859   6.191   6.035   1.503  0.8998 -0.9537 -1.0633
 7803SOL    HW224860   6.280   5.978   1.611 -0.7710  0.5573  1.2072
 7804SOL     OW24861   0.565   2.966   6.755 -0.2506  0.6156  0.7386
 7804SOL    HW124862   0.589   3.009   6.673  0.5637 -0.3024  0.4868
 7804SOL    HW224863   0.480   2.925   6.737 -0.1138  0.4865  0.3848
 7805SOL     OW24864   5.164   2.924   0.405  0.4386  0.2925  0.2344
 7805SOL    HW124865   5.235   2.956   0.349  0.0776 -0.6288 -0.7892
 7805SOL    HW224866   5.125   3.003   0.442  2.2371  0.8128  1.1455
 7806SOL     OW24867   1.968   1.498   2.836 -0.0757 -0.4610  0.0847
 7806SOL    HW124868   1.912   1.421   2.833  0.6312 -0.9572 -1.5909
 7806SOL    HW224869   1.907   1.572   2.845 -1.0283 -1.0044 -1.4678
 7807SOL     OW24870   0.658   7.098   1.122  0.1293 -0.1925 -0.2249
 7807SOL    HW124871   0.709   7.123   1.045 -0.5917  0.2647 -0.5717
 7807SOL    HW224872   0.712   7.034   1.168  1.5723  1.1907  0.0955
 7808SOL     OW24873   5.372   3.207   0.314  0.8641 -0.1107 -0.1714
 7808SOL    HW124874   5.399   3.228   0.225  0.7324  0.0052 -0.1838
 7808SOL    HW224875   5.294   3.260   0.329  0.8844 -0.1318  0.0119
 7809SOL     OW24876   2.841   4.760   3.907 -0.0609  0.0578  0.2499
 7809SOL    HW124877   2.791   4.717   3.838 -0.3406  0.1256  0.4097
 7809SOL    HW224878   2.825   4.853   3.893  0.7391  0.1259 -0.2444
 7810SOL     OW24879   2.775   2.693   1.071  0.2278 -0.1629 -0.6314
 7810SOL    HW124880   2.680   2.694   1.065  0.2063 -0.4316 -0.3738
 7810SOL    HW224881   2.804   2.640   0.996  0.1300 -0.7576 -0.2575
 7811SOL     OW24882   6.895   5.081   5.423  0.1949 -0.1173  0.2192
 7811SOL    HW124883   6.837   5.064   5.349 -1.5974  0.9309  1.3064
 7811SOL    HW224884   6.848   5.047   5.499  1.9324 -1.0620  0.9294
 7812SOL     OW24885   6.791   6.758   2.513 -0.0110  0.1876 -0.4977
 7812SOL    HW124886   6.797   6.846   2.549 -1.2989  0.2816 -0.4768
 7812SOL    HW224887   6.882   6.733   2.495  0.4817  1.0084  0.6992
 7813SOL     OW24888   1.512   6.621   1.550  0.7784  0.3034 -0.4927
 7813SOL    HW124889   1.490   6.530   1.529 -0.6933  0.8204 -1.3725
 7813SOL    HW224890   1.558   6.616   1.634  2.5945 -1.4179 -1.4978
 7814SOL     OW24891   2.683   0.587   3.694  0.1974 -0.5808  0.0506
 7814SOL    HW124892   2.713   0.506   3.736  0.1479 -0.0150  1.1965
 7814SOL    HW224893   2.733   0.657   3.736 -1.9960  0.2935  1.3672
 7815SOL     OW24894   0.339   0.948   1.978 -0.1928  0.1769  0.1157
 7815SOL    HW124895   0.366   0.905   1.897 -0.6266 -0.9238  0.5343
 7815SOL    HW224896   0.357   0.883   2.046 -0.5640  0.7934  0.8104
 7816SOL     OW24897   1.980   4.815   2.199 -0.3908 -1.0127  0.5869
 7816SOL    HW124898   1.977   4.862   2.115  0.2605 -0.5978  0.7825
 7816SOL    HW224899   1.955   4.881   2.263 -0.4083 -1.1941  0.7655
 7817SOL     OW24900   7.009   5.586   1.006  0.0400 -0.4475 -0.3369
 7817SOL    HW124901   6.927   5.633   0.992  1.0870  1.4874 -0.3095
 7817SOL    HW224902   7.055   5.639   1.071  1.1947 -1.6542 -0.1536
 7818SOL     OW24903   3.900   6.648   7.064 -0.5210 -0.4311  0.2959
 7818SOL    HW124904   3.833   6.581   7.052  0.0065 -0.8633 -0.2625
 7818SOL    HW224905   3.983   6.601   7.056 -0.1257  0.4972 -1.3882
 7819SOL     OW24906   2.987   6.994   2.414 -0.3197 -0.2146  0.3187
 7819SOL    HW124907   2.910   7.027   2.367 -1.3235 -1.1773  1.2247
 7819SOL    HW224908   3.049   7.067   2.413 -1.3638  0.6963 -0.1556
 7820SOL     OW24909   6.549   2.906   3.393 -0.8268 -0.6361 -0.1504
 7820SOL    HW124910   6.472   2.873   3.346 -0.6400 -2.4412  0.7062
 7820SOL    HW224911   6.624   2.878   3.339 -0.6885 -1.1278  0.2862
 7821SOL     OW24912   1.604   1.899   6.710  0.1419 -0.3098 -0.4764
 7821SOL    HW124913   1.578   1.826   6.766  0.6015 -1.3759 -1.6105
 7821SOL    HW224914   1.691   1.876   6.679 -0.0187  0.3544 -1.4709
 7822SOL     OW24915   4.893   2.116   6.047 -0.0661 -0.0392 -0.7983
 7822SOL    HW124916   4.885   2.029   6.086 -0.3379 -0.0799 -0.9438
 7822SOL    HW224917   4.912   2.174   6.121 -2.7769  0.2536 -0.2162
 7823SOL     OW24918   4.367   2.524   1.982  0.0553  0.0566  0.4281
 7823SOL    HW124919   4.374   2.541   1.888  1.4259 -0.8221  0.3464
 7823SOL    HW224920   4.433   2.581   2.022 -0.5744  0.4850  0.8807
 7824SOL     OW24921   2.063   5.622   4.596 -0.5657 -0.1860 -0.0777
 7824SOL    HW124922   2.092   5.697   4.648  1.3695  0.4962 -2.0069
 7824SOL    HW224923   2.138   5.600   4.541 -2.1149 -1.5900 -1.7687
 7825SOL     OW24924   5.440   2.729   0.630 -0.0933 -0.1944  0.2212
 7825SOL    HW124925   5.509   2.663   0.626 -0.5588 -0.7037  0.5567
 7825SOL    HW224926   5.458   2.787   0.556  1.9898  0.9689  1.5298
 7826SOL     OW24927   2.029   4.888   1.189 -0.3902  0.1880 -0.0659
 7826SOL    HW124928   2.108   4.890   1.136 -0.7795  1.9338 -0.6208
 7826SOL    HW224929   1.978   4.963   1.161 -0.9108  0.8243  2.3137
 7827SOL     OW24930   6.848   4.019   5.259  0.4635 -0.0012  0.0344
 7827SOL    HW124931   6.925   3.985   5.213  1.4918 -0.6306  2.0936
 7827SOL    HW224932   6.796   3.942   5.279  0.5008  0.1573  0.7459
 7828SOL     OW24933   2.990   3.947   2.984  0.4847  0.2100 -0.4600
 7828SOL    HW124934   3.007   3.870   3.038 -1.4667 -0.8802 -1.2986
 7828SOL    HW224935   2.978   4.018   3.047 -2.4735 -1.1689  0.7313
 7829SOL     OW24936   1.873   6.495   1.356  0.5951 -0.0039 -1.0095
 7829SOL    HW124937   1.948   6.520   1.303  1.8172 -0.6524  0.3477
 7829SOL    HW224938   1.857   6.571   1.412  1.0090 -0.2949 -0.4847
 7830SOL     OW24939   3.264   2.185   2.202  0.2940 -0.1406  0.3691
 7830SOL    HW124940   3.282   2.248   2.132 -0.0583  1.0662  1.3186
 7830SOL    HW224941   3.237   2.105   2.156 -0.4534  0.7797 -0.8775
 7831SOL     OW24942   0.543   0.920   3.211 -0.2925 -0.0732 -0.1263
 7831SOL    HW124943   0.460   0.948   3.248 -0.0607  0.1590  0.2286
 7831SOL    HW224944   0.582   1.001   3.176  0.1598 -0.0335  0.4602
 7832SOL     OW24945   6.875   1.475   1.275  0.1014  0.0060  0.0796
 7832SOL    HW124946   6.832   1.459   1.191  1.3065 -1.4048 -0.3186
 7832SOL    HW224947   6.931   1.551   1.258  0.7016 -0.5638 -0.5567
 7833SOL     OW24948   0.214   0.574   5.110  0.1173 -0.4687  0.1323
 7833SOL    HW124949   0.195   0.565   5.017  0.5147 -1.4708  0.1431
 7833SOL    HW224950   0.303   0.540   5.120  0.7497  1.2081  0.6058
 7834SOL     OW24951   1.082   0.760   0.571 -0.8874  0.1036  0.2638
 7834SOL    HW124952   1.101   0.668   0.588  0.0440  0.3741  0.7399
 7834SOL    HW224953   1.073   0.799   0.657  1.4002  0.9822  0.1720
 7835SOL     OW24954   4.816   4.061   4.847 -0.2202 -0.5294 -0.3566
 7835SOL    HW124955   4.871   4.073   4.770  0.7930  0.8571  0.5339
 7835SOL    HW224956   4.762   4.140   4.852 -1.1784 -1.1593 -0.3120
 7836SOL     OW24957   3.033   0.905   1.456  0.0352  0.3392 -0.0610
 7836SOL    HW124958   3.013   0.812   1.442 -1.1627  0.3916  1.0772
 7836SOL    HW224959   2.959   0.951   1.418  2.0092  1.0653 -3.3536
 7837SOL     OW24960   0.676   1.688   0.619  0.2209  0.1728 -0.0808
 7837SOL    HW124961   0.727   1.613   0.650 -0.1576  0.1607  0.5345
 7837SOL    HW224962   0.623   1.652   0.548  0.4640 -0.0081 -0.1731
 7838SOL     OW24963   3.517   6.022   6.647 -0.1523  0.1822 -0.2816
 7838SOL    HW124964   3.594   6.045   6.596  1.0340  1.3100  1.9007
 7838SOL    HW224965   3.512   5.926   6.641  0.2214  0.2397 -2.0424
 7839SOL     OW24966   4.708   1.676   5.819 -0.0177  0.1658  0.0745
 7839SOL    HW124967   4.709   1.612   5.890 -0.2205  0.9453  0.7950
 7839SOL    HW224968   4.790   1.661   5.771 -0.2710 -0.9224 -0.0447
 7840SOL     OW24969   5.827   0.257   5.175 -0.5032 -0.7254  0.0712
 7840SOL    HW124970   5.911   0.225   5.142 -0.9254 -0.9690 -0.8092
 7840SOL    HW224971   5.762   0.200   5.134 -1.0852 -0.7262  0.9666
 7841SOL     OW24972   0.436   5.069   2.821  0.2007  0.2622  0.2148
 7841SOL    HW124973   0.496   4.997   2.840  0.1959  0.4318  0.8839
 7841SOL    HW224974   0.443   5.081   2.726  0.3942 -0.4432  0.1341
 7842SOL     OW24975   3.099   4.274   6.436  0.1477  0.0296  0.2394
 7842SOL    HW124976   3.103   4.201   6.375  0.3933 -0.5191  0.8959
 7842SOL    HW224977   3.100   4.233   6.522 -1.2983  0.7123  0.6271
 7843SOL     OW24978   0.854   3.695   4.050 -0.1228 -0.1566 -0.0253
 7843SOL    HW124979   0.935   3.742   4.069 -0.2622  0.0881 -0.0313
 7843SOL    HW224980   0.785   3.759   4.065 -0.4142 -0.7323  1.2979
 7844SOL     OW24981   3.690   6.954   3.231 -0.2319  0.1777  0.0187
 7844SOL    HW124982   3.707   6.936   3.324  1.4799  0.4026 -0.2185
 7844SOL    HW224983   3.658   6.871   3.196 -1.1804  0.1646  0.8485
 7845SOL     OW24984   5.869   5.675   1.068  0.4935 -0.1196  0.5709
 7845SOL    HW124985   5.824   5.727   1.135  0.2875  1.5806 -0.7970
 7845SOL    HW224986   5.944   5.637   1.113 -0.0417  0.3797  1.9314
 7846SOL     OW24987   6.216   3.489   2.107  0.1366  0.2821  0.6538
 7846SOL    HW124988   6.293   3.538   2.135  0.5136 -0.6126  1.1961
 7846SOL    HW224989   6.220   3.491   2.011  0.0550  1.4409  0.6645
 7847SOL     OW24990   1.472   2.713   0.917 -0.1369 -0.1572  0.7659
 7847SOL    HW124991   1.543   2.768   0.885 -2.1239  2.0573 -0.1325
 7847SOL    HW224992   1.481   2.631   0.869  1.0696  0.5488 -0.2639
 7848SOL     OW24993   5.639   0.031   7.018  0.1575  0.5378  0.0734
 7848SOL    HW124994   5.734   0.042   7.011  0.2909 -0.3043  0.4775
 7848SOL    HW224995   5.626  -0.064   7.022 -0.8150  0.5463 -1.6326
 7849SOL     OW24996   3.809   4.982   2.146  0.2166 -0.1752  0.1743
 7849SOL    HW124997   3.819   4.890   2.123 -2.0372 -0.4724  0.0781
 7849SOL    HW224998   3.725   5.007   2.106 -0.4889  1.1914  2.3257
 7850SOL     OW24999   5.762   3.442   0.182 -0.0207  0.2531  0.0252
 7850SOL    HW125000   5.700   3.512   0.202  0.5262  1.2521 -1.5181
 7850SOL    HW225001   5.796   3.414   0.267 -0.6238  1.5240  0.7154
 7851SOL     OW25002   3.149   3.238   6.542 -0.1344 -0.2061  0.6692
 7851SOL    HW125003   3.200   3.157   6.537  0.1471 -0.0546  1.0049
 7851SOL    HW225004   3.130   3.261   6.451 -0.3504 -0.7305  0.5757
 7852SOL     OW25005   5.027   7.130   0.039 -0.0948  0.1082 -0.6797
 7852SOL    HW125006   4.942   7.097   0.008 -0.1590 -0.6466  0.2634
 7852SOL    HW225007   5.054   7.192  -0.029 -0.2253 -1.4899 -2.2875
 7853SOL     OW25008   0.307   2.233   6.201 -0.3236  0.0784  0.0717
 7853SOL    HW125009   0.310   2.282   6.119 -0.9704  1.1802  0.6656
 7853SOL    HW225010   0.369   2.161   6.189  1.6421  1.7479 -0.4201
 7854SOL     OW25011   5.722   2.674   5.426 -0.3158 -1.0934  0.2757
 7854SOL    HW125012   5.718   2.765   5.453 -2.9782 -0.3314 -2.1421
 7854SOL    HW225013   5.790   2.672   5.358 -1.1200 -0.5810 -0.5646
 7855SOL     OW25014   2.550   5.697   2.962 -0.1220  0.0250  0.1981
 7855SOL    HW125015   2.584   5.635   3.027 -1.4169  1.2805  2.1563
 7855SOL    HW225016   2.481   5.649   2.917 -0.9725 -0.0843  1.5551
 7856SOL     OW25017   4.435   2.946   0.078 -0.1073 -0.1238 -0.1114
 7856SOL    HW125018   4.501   2.971   0.013  0.4006 -2.7552 -0.7301
 7856SOL    HW225019   4.379   3.023   0.086  0.7033  0.8226 -2.5491
 7857SOL     OW25020   0.104   2.565   5.666 -0.3292 -0.0646  0.0652
 7857SOL    HW125021   0.129   2.538   5.755  1.4921  0.7671 -0.1509
 7857SOL    HW225022   0.129   2.657   5.661 -0.6304 -0.0357 -1.2458
 7858SOL     OW25023   0.914   5.614   4.160  0.2041 -0.0287  0.2154
 7858SOL    HW125024   0.902   5.552   4.232 -0.5550  1.4053  1.3777
 7858SOL    HW225025   0.878   5.569   4.083 -0.5584 -0.9300  1.0801
 7859SOL     OW25026   4.703   0.361   3.494  0.1712  0.7743 -0.0693
 7859SOL    HW125027   4.790   0.332   3.465  0.6786  0.4173  1.6864
 7859SOL    HW225028   4.716   0.449   3.527  0.1729  0.2387  1.4337
 7860SOL     OW25029   5.504   7.034   5.048 -0.0765  0.0670 -0.3405
 7860SOL    HW125030   5.476   7.004   5.135  0.5060  0.0044 -0.1660
 7860SOL    HW225031   5.428   7.019   4.992 -0.3436 -0.2199  0.0865
 7861SOL     OW25032   1.043   0.921   4.322  0.2130 -0.2844  0.6570
 7861SOL    HW125033   0.989   0.986   4.368 -0.8560 -0.3341 -0.4924
 7861SOL    HW225034   1.001   0.910   4.237  3.5564  1.7466 -1.4970
 7862SOL     OW25035   6.432   0.164   2.698  0.3672 -0.0863  0.4872
 7862SOL    HW125036   6.364   0.171   2.631  1.6063  1.2996 -0.6956
 7862SOL    HW225037   6.439   0.070   2.716 -0.2084 -0.4602 -1.1082
 7863SOL     OW25038   1.591   6.021   5.363 -0.1416 -0.2794 -0.1780
 7863SOL    HW125039   1.519   6.068   5.321 -0.5349 -0.7036  0.0220
 7863SOL    HW225040   1.550   5.967   5.430  0.4999  0.5788  0.9450
 7864SOL     OW25041   3.270   3.556   0.386  0.1517  0.2249  0.3140
 7864SOL    HW125042   3.199   3.585   0.329 -0.3963  0.2498  0.9954
 7864SOL    HW225043   3.336   3.520   0.327  0.2893  1.6881 -0.4478
 7865SOL     OW25044   6.651   3.368   1.175 -0.0197 -0.4142 -0.0577
 7865SOL    HW125045   6.659   3.435   1.242  0.6496  2.3458 -2.6638
 7865SOL    HW225046   6.721   3.306   1.193  0.7662  0.8081  1.1970
 7866SOL     OW25047   1.726   5.818   5.233 -0.1665  0.1158 -0.0892
 7866SOL    HW125048   1.691   5.898   5.274 -0.7738  0.0219 -0.4026
 7866SOL    HW225049   1.678   5.812   5.150  0.6291 -0.0091 -0.5432
 7867SOL     OW25050   1.476   6.021   4.793 -0.2919 -0.5997  0.1362
 7867SOL    HW125051   1.430   6.102   4.815  1.2703  0.3386  0.0828
 7867SOL    HW225052   1.489   6.026   4.699  0.0748 -0.7691  0.1790
 7868SOL     OW25053   2.995   3.588   6.707  0.0787  0.5697 -0.4064
 7868SOL    HW125054   2.904   3.602   6.681  0.3538  1.4135 -0.9704
 7868SOL    HW225055   3.043   3.657   6.662  0.9383  0.4087  0.2413
 7869SOL     OW25056   0.582   2.624   0.762 -0.3636  0.3633  0.1986
 7869SOL    HW125057   0.673   2.649   0.777 -0.1515  1.0229 -1.8794
 7869SOL    HW225058   0.578   2.532   0.785  0.8649  0.2924  0.2019
 7870SOL     OW25059   2.970   4.155   0.451 -0.0101  0.6734 -0.4545
 7870SOL    HW125060   3.047   4.188   0.498 -0.3168 -0.7354  1.1243
 7870SOL    HW225061   2.898   4.164   0.513 -0.5980 -0.4430 -0.9397
 7871SOL     OW25062   3.582   1.650   6.417 -0.4689  0.3621 -0.1944
 7871SOL    HW125063   3.535   1.599   6.352  0.8470 -1.9373  0.5683
 7871SOL    HW225064   3.554   1.614   6.501  0.7962  0.6012  0.3503
 7872SOL     OW25065   0.645   2.709   3.009 -0.1143 -0.4027  0.3115
 7872SOL    HW125066   0.730   2.749   3.027  0.1905  0.4819 -2.5605
 7872SOL    HW225067   0.582   2.780   3.026  0.1794  0.4657 -1.8701
 7873SOL     OW25068   1.323   2.598   0.613  0.0973  0.4289  0.3636
 7873SOL    HW125069   1.273   2.532   0.565 -0.1590  0.9761 -0.1421
 7873SOL    HW225070   1.360   2.551   0.687  0.8277 -0.5174 -0.5802
 7874SOL     OW25071   2.670   3.932   2.047 -0.0119 -0.1404 -0.0388
 7874SOL    HW125072   2.723   3.942   2.126  0.1487  2.1464 -0.3620
 7874SOL    HW225073   2.588   3.894   2.078 -1.1970  3.4735  1.9080
 7875SOL     OW25074   3.227   4.626   6.710  0.3786  0.0171  0.3193
 7875SOL    HW125075   3.249   4.592   6.623 -0.3436 -0.5654  0.3569
 7875SOL    HW225076   3.312   4.644   6.751  0.7566 -0.9447 -0.0170
 7876SOL     OW25077   4.019   0.714   3.911  0.3606 -0.2005 -0.0463
 7876SOL    HW125078   4.080   0.649   3.946  1.5934 -0.2050 -2.0631
 7876SOL    HW225079   3.982   0.673   3.833 -0.6223  0.6250 -0.0370
 7877SOL     OW25080   4.554   5.490   1.139  0.0734  0.0970 -0.4518
 7877SOL    HW125081   4.549   5.586   1.137  1.2885  0.1790 -0.2730
 7877SOL    HW225082   4.506   5.465   1.217  3.1762  0.8726  1.8968
 7878SOL     OW25083   4.399   0.604   3.557 -0.3917 -0.0452 -0.0541
 7878SOL    HW125084   4.355   0.607   3.472  0.3935 -0.2534 -0.4700
 7878SOL    HW225085   4.372   0.521   3.595  0.2065 -0.5082 -0.6217
 7879SOL     OW25086   5.317   2.273   4.304 -0.5097 -0.8855 -0.2560
 7879SOL    HW125087   5.276   2.233   4.228 -2.5841  0.3728  0.1103
 7879SOL    HW225088   5.257   2.255   4.376 -2.0501  3.2583 -0.1945
 7880SOL     OW25089   3.735   5.994   3.215  0.2704 -0.4383  0.0510
 7880SOL    HW125090   3.667   5.945   3.170  0.5853 -1.1632  0.3415
 7880SOL    HW225091   3.707   5.997   3.307  0.9287 -1.3060  0.2947
 7881SOL     OW25092   5.637   3.684   1.369 -0.2795  0.0232 -0.1302
 7881SOL    HW125093   5.665   3.631   1.444  0.6672 -0.2242 -0.6440
 7881SOL    HW225094   5.685   3.766   1.379  0.5145 -0.3337 -0.9218
 7882SOL     OW25095   4.158   4.841   2.442  0.1580 -0.1407 -0.3871
 7882SOL    HW125096   4.151   4.781   2.367  0.0663 -1.0890  0.3544
 7882SOL    HW225097   4.071   4.882   2.447  0.6578  1.1743 -1.7764
 7883SOL     OW25098   5.161   6.008   5.613 -0.4108 -0.0651  0.8209
 7883SOL    HW125099   5.191   5.939   5.553 -0.2350  1.6465 -1.1466
 7883SOL    HW225100   5.129   5.960   5.689 -0.1662 -2.3205 -0.4054
 7884SOL     OW25101   0.665   4.415   3.304 -0.0689  0.6220 -0.2307
 7884SOL    HW125102   0.689   4.329   3.340 -0.2383 -0.4271 -2.4548
 7884SOL    HW225103   0.573   4.406   3.280 -0.0572  1.4052 -0.5889
 7885SOL     OW25104   0.003   4.009   3.567 -0.4394  0.1187 -0.1875
 7885SOL    HW125105   0.005   4.054   3.651  1.6827 -1.1647  0.5519
 7885SOL    HW225106   0.053   4.066   3.508  0.6489 -0.3461  0.2560
 7886SOL     OW25107   1.165   6.353   0.333 -0.3462  0.2369  0.1208
 7886SOL    HW125108   1.099   6.291   0.361  0.9919  0.0852  3.4463
 7886SOL    HW225109   1.122   6.439   0.338 -0.7661  0.0024  0.5449
 7887SOL     OW25110   0.685   1.037   1.626 -0.0377  0.1912 -0.2560
 7887SOL    HW125111   0.665   1.013   1.716  0.4927  1.6552  0.2876
 7887SOL    HW225112   0.600   1.041   1.582 -0.3259 -0.2090  0.2678
 7888SOL     OW25113   6.938   3.337   5.339  0.3401  0.0664 -0.2728
 7888SOL    HW125114   6.951   3.418   5.290  0.0899  0.4314  0.2464
 7888SOL    HW225115   7.019   3.325   5.388  1.0029 -0.8590 -1.5467
 7889SOL     OW25116   2.703   5.611   7.100 -0.1015  0.0176 -0.2782
 7889SOL    HW125117   2.706   5.674   7.028 -0.9851 -0.7119 -0.9934
 7889SOL    HW225118   2.621   5.562   7.085 -0.6354  0.2682  1.6006
 7890SOL     OW25119   4.309   4.460   5.449  0.3970 -0.2150 -0.0968
 7890SOL    HW125120   4.370   4.514   5.499 -0.3292  0.3297  0.2085
 7890SOL    HW225121   4.293   4.383   5.504  1.0451 -0.5171 -0.3172
 7891SOL     OW25122   4.658   1.088   3.918  0.3723  0.3257 -0.0170
 7891SOL    HW125123   4.747   1.053   3.915  0.0438 -0.4414 -1.2366
 7891SOL    HW225124   4.635   1.105   3.827 -0.8544  0.2217  0.2507
 7892SOL     OW25125   6.689   1.878   4.390 -0.0310 -0.3676 -0.2058
 7892SOL    HW125126   6.698   1.953   4.449 -0.3801  1.0691 -1.8846
 7892SOL    HW225127   6.771   1.875   4.342  0.6999 -2.2196  1.0372
 7893SOL     OW25128   3.245   6.286   6.076  0.0452  0.1538 -0.7833
 7893SOL    HW125129   3.230   6.323   6.163  2.1539 -0.4891 -0.0961
 7893SOL    HW225130   3.233   6.192   6.087  2.5964 -0.2298 -0.5311
 7894SOL     OW25131   2.504   0.097   2.608  0.2644  0.0628 -0.1761
 7894SOL    HW125132   2.470   0.036   2.674  0.4630 -1.4450 -1.4278
 7894SOL    HW225133   2.474   0.183   2.638 -1.8321 -0.8444  0.5266
 7895SOL     OW25134   6.869   1.384   2.409 -0.1489 -0.2046  0.2299
 7895SOL    HW125135   6.932   1.404   2.478 -2.5591 -1.8361  3.1766
 7895SOL    HW225136   6.849   1.291   2.421 -1.4129 -0.3247 -2.0920
 7896SOL     OW25137   6.625   0.067   2.480  0.3934  0.0749 -0.1010
 7896SOL    HW125138   6.597   0.154   2.509  1.3167  0.8492 -1.4018
 7896SOL    HW225139   6.559   0.040   2.417  0.9149  0.5665 -0.8883
 7897SOL     OW25140   3.747   5.690   5.619  1.0032 -0.2021 -0.7953
 7897SOL    HW125141   3.676   5.742   5.656  0.9571 -0.8699  0.1127
 7897SOL    HW225142   3.811   5.754   5.587  1.2436  0.4468  0.8501
 7898SOL     OW25143   0.904   3.747   2.252 -0.2061  0.4167 -0.3896
 7898SOL    HW125144   0.940   3.734   2.340  0.9687  2.3179 -0.5414
 7898SOL    HW225145   0.906   3.659   2.213  0.8407 -0.1764  0.8951
 7899SOL     OW25146   3.655   1.708   1.821 -0.1254  0.1744 -0.6288
 7899SOL    HW125147   3.605   1.777   1.778  2.2436  3.3550  1.2117
 7899SOL    HW225148   3.593   1.666   1.880 -1.4444  1.5572 -0.9751
 7900SOL     OW25149   7.108   2.898   4.838  0.0615  0.3959  0.2674
 7900SOL    HW125150   7.141   2.808   4.832 -1.4796 -0.1787  0.1379
 7900SOL    HW225151   7.014   2.890   4.825 -0.3903  1.7837  2.2041
 7901SOL     OW25152   0.419   5.325   6.988  0.3668  0.5354  0.2677
 7901SOL    HW125153   0.394   5.367   7.070 -2.1432  0.8186 -0.5766
 7901SOL    HW225154   0.432   5.397   6.926  2.1501  0.3201  0.3143
 7902SOL     OW25155   1.431   2.192   3.577 -0.2347  0.1001  0.5168
 7902SOL    HW125156   1.353   2.137   3.576 -0.0611 -0.1557 -0.5954
 7902SOL    HW225157   1.444   2.218   3.486  1.7556 -1.0012  0.4234
 7903SOL     OW25158   0.537   0.349   6.395 -0.0805 -0.4287  0.1403
 7903SOL    HW125159   0.605   0.416   6.398 -2.1471  1.7658  1.5609
 7903SOL    HW225160   0.546   0.301   6.477 -0.1996 -0.1755  0.3020
 7904SOL     OW25161   6.556   1.444   5.201 -0.4202  0.3825 -0.3879
 7904SOL    HW125162   6.577   1.491   5.120  1.8058 -0.7093 -0.5287
 7904SOL    HW225163   6.571   1.352   5.181 -1.6473 -0.0996  0.7584
 7905SOL     OW25164   6.146   1.383   6.290  0.4294 -0.5048  0.5018
 7905SOL    HW125165   6.143   1.466   6.336  0.8642 -0.0595 -0.2559
 7905SOL    HW225166   6.059   1.345   6.304 -0.2094  0.6411 -0.1479
 7906SOL     OW25167   5.646   1.943   1.819 -0.3049 -0.0776  0.0948
 7906SOL    HW125168   5.633   1.894   1.738 -1.6895 -0.5872  0.5891
 7906SOL    HW225169   5.683   1.879   1.880 -0.5006 -0.0508  0.2416
 7907SOL     OW25170   0.830   4.454   3.043 -0.0147 -0.1431  0.1153
 7907SOL    HW125171   0.803   4.521   3.106 -1.2747 -0.7667  0.2772
 7907SOL    HW225172   0.809   4.371   3.086  0.0784 -0.6012 -0.7111
 7908SOL     OW25173   1.928   1.859   3.748 -0.5840  0.1364 -0.9462
 7908SOL    HW125174   1.915   1.830   3.838 -2.7498 -1.4363 -1.6722
 7908SOL    HW225175   1.968   1.946   3.756  0.6069 -0.5645  1.4563
 7909SOL     OW25176   3.132   4.759   5.417  0.0355  0.0076  0.4771
 7909SOL    HW125177   3.087   4.786   5.497 -0.6129  0.8976 -0.1635
 7909SOL    HW225178   3.067   4.707   5.369  0.2293 -0.0613  0.2874
 7910SOL     OW25179   3.707   4.833   6.817  0.1253 -0.1210 -0.2552
 7910SOL    HW125180   3.779   4.841   6.880  0.1141 -0.4759 -0.1979
 7910SOL    HW225181   3.699   4.921   6.780  0.1827  0.0716  0.1793
 7911SOL     OW25182   5.808   2.805   6.815  0.2163 -0.2680 -0.1534
 7911SOL    HW125183   5.883   2.854   6.848 -0.3159 -0.0674  0.7724
 7911SOL    HW225184   5.792   2.843   6.728  1.4374 -0.6045 -0.5517
 7912SOL     OW25185   4.336   1.985   5.397  0.0033 -0.3495 -0.7506
 7912SOL    HW125186   4.267   1.920   5.407  1.3480 -1.6404  0.4943
 7912SOL    HW225187   4.335   2.034   5.479  1.4513 -1.3136 -0.1173
 7913SOL     OW25188   3.694   6.923   5.119  0.5957 -0.2389 -0.3709
 7913SOL    HW125189   3.688   6.999   5.061  1.0414  0.6622  0.7253
 7913SOL    HW225190   3.625   6.938   5.184 -0.3297 -1.5683 -1.0060
 7914SOL     OW25191   2.856   3.319   2.904 -0.3550  0.3413  0.3306
 7914SOL    HW125192   2.832   3.227   2.909 -0.0157  0.2706  0.7185
 7914SOL    HW225193   2.952   3.319   2.898 -0.4002  0.6422 -0.4995
 7915SOL     OW25194   1.058   5.701   3.820  0.1791  0.0765  0.6593
 7915SOL    HW125195   1.005   5.780   3.827 -1.6265 -1.1626  1.8779
 7915SOL    HW225196   1.101   5.693   3.904  0.3494 -0.2285  0.5442
 7916SOL     OW25197   0.379   1.361   3.195 -0.3379 -0.1324 -0.2460
 7916SOL    HW125198   0.312   1.420   3.160 -0.9163 -0.5155  0.2081
 7916SOL    HW225199   0.462   1.403   3.172 -0.7117  1.8760  1.7362
 7917SOL     OW25200   3.812   2.345   3.544 -0.0116  0.1312 -0.3460
 7917SOL    HW125201   3.763   2.345   3.462  1.0126 -0.0059 -0.9734
 7917SOL    HW225202   3.745   2.343   3.612 -0.9200  1.6358 -1.1411
 7918SOL     OW25203   2.584   3.379   2.887  0.2999  0.2580 -0.0306
 7918SOL    HW125204   2.563   3.305   2.829 -0.5349  1.3934 -1.2630
 7918SOL    HW225205   2.678   3.391   2.878  0.2253  0.2559 -1.0243
 7919SOL     OW25206   2.957   4.304   5.224 -0.0482  0.1981 -0.0754
 7919SOL    HW125207   3.046   4.272   5.211 -0.0300  0.3100 -0.2336
 7919SOL    HW225208   2.902   4.245   5.173 -0.3919 -1.6284  2.2597
 7920SOL     OW25209   5.681   1.994   0.796  0.1547  0.0324 -0.2583
 7920SOL    HW125210   5.660   1.908   0.759  2.0331 -0.5110 -0.1700
 7920SOL    HW225211   5.678   2.053   0.721  1.3038 -0.5893 -0.8344
 7921SOL     OW25212   2.827   1.387   0.771  0.1440  0.5659 -0.0408
 7921SOL    HW125213   2.858   1.429   0.691  0.3148  2.2993  0.8744
 7921SOL    HW225214   2.747   1.434   0.794 -0.4792 -0.6088  0.2474
 7922SOL     OW25215   5.617   2.505   2.560  0.2877 -0.2334 -0.0570
 7922SOL    HW125216   5.529   2.539   2.572 -0.6038 -3.0058  2.6728
 7922SOL    HW225217   5.613   2.454   2.479 -0.4317  0.1541 -0.2654
 7923SOL     OW25218   0.446   2.509   3.348  0.3590  0.0686 -0.2956
 7923SOL    HW125219   0.393   2.523   3.426  1.7720  0.9499  0.5416
 7923SOL    HW225220   0.499   2.588   3.340  1.2598 -0.6096 -1.3455
 7924SOL     OW25221   3.037   3.661   0.181  0.1868  0.4843  0.0156
 7924SOL    HW125222   3.106   3.726   0.166  0.2281  0.7667  1.3738
 7924SOL    HW225223   2.967   3.709   0.226 -0.6601  0.0578 -0.8001
 7925SOL     OW25224   2.467   0.340   4.900 -0.7811  0.4447 -0.1390
 7925SOL    HW125225   2.491   0.247   4.899  0.6502  0.7924 -0.2887
 7925SOL    HW225226   2.546   0.385   4.871 -1.1391  1.7897  0.9151
 7926SOL     OW25227   7.122   0.098   5.591 -0.0635 -0.6879 -0.1924
 7926SOL    HW125228   7.049   0.141   5.546  1.4194  0.7307 -1.3476
 7926SOL    HW225229   7.094   0.007   5.600 -1.2053 -0.6088 -2.3087
 7927SOL     OW25230   6.268   6.367   3.199  0.1095 -0.2205 -0.0533
 7927SOL    HW125231   6.315   6.339   3.121  1.5719  2.5333 -0.2914
 7927SOL    HW225232   6.188   6.406   3.166 -0.7843 -1.8115  0.1177
 7928SOL     OW25233   6.205   4.269   5.280 -0.6203 -0.3653 -0.0588
 7928SOL    HW125234   6.288   4.305   5.247  0.3353 -1.6004  0.9011
 7928SOL    HW225235   6.138   4.316   5.231  0.6089  1.4467 -0.0956
 7929SOL     OW25236   7.095   5.830   4.609 -0.5303  0.8709 -0.2687
 7929SOL    HW125237   7.094   5.821   4.513  0.0649  0.3832 -0.2411
 7929SOL    HW225238   7.089   5.924   4.624 -0.0293  1.0028 -0.8139
 7930SOL     OW25239   1.438   0.466   5.263  0.3282 -0.1804 -0.3421
 7930SOL    HW125240   1.385   0.397   5.222  0.5786 -1.6239  1.6028
 7930SOL    HW225241   1.375   0.535   5.284 -1.1492 -2.2335  2.7632
 7931SOL     OW25242   5.788   0.758   4.138 -0.5806  0.4178 -0.0453
 7931SOL    HW125243   5.882   0.742   4.133 -0.1129  2.9607 -0.6347
 7931SOL    HW225244   5.749   0.685   4.090  1.2409  0.3544 -1.5607
 7932SOL     OW25245   3.206   4.034   6.898 -0.1282  0.4782 -0.5013
 7932SOL    HW125246   3.288   4.003   6.936  0.0031  0.6485 -0.6442
 7932SOL    HW225247   3.142   3.966   6.920 -0.1857  0.8298  0.5096
 7933SOL     OW25248   2.177   7.051   6.892 -0.4287 -0.1676  0.4986
 7933SOL    HW125249   2.103   7.107   6.913 -0.6517 -1.0456  2.2398
 7933SOL    HW225250   2.196   7.004   6.973  1.4929 -0.6065 -0.1391
 7934SOL     OW25251   3.692   6.704   6.402  0.2474 -0.6326 -0.0595
 7934SOL    HW125252   3.751   6.676   6.332 -0.3883 -0.9535 -0.4796
 7934SOL    HW225253   3.731   6.784   6.436  0.9827 -0.9005 -0.2511
 7935SOL     OW25254   2.916   2.169   1.171 -0.7463  0.9334 -0.2426
 7935SOL    HW125255   2.945   2.194   1.083  0.9551  2.9330  0.7665
 7935SOL    HW225256   2.826   2.140   1.160 -0.2365  0.0697 -2.7732
 7936SOL     OW25257   2.993   4.934   6.014  0.0989  0.0722 -0.1930
 7936SOL    HW125258   3.043   4.954   5.935 -0.3044 -2.3791 -1.1532
 7936SOL    HW225259   3.057   4.900   6.075 -0.0461 -1.2768 -0.7485
 7937SOL     OW25260   3.089   6.705   6.097  0.4516  0.2606  0.1530
 7937SOL    HW125261   3.021   6.643   6.071  2.7183 -2.8310  0.9748
 7937SOL    HW225262   3.167   6.676   6.049  1.9977  1.5014  1.7898
 7938SOL     OW25263   1.084   7.011   0.581  0.3246  0.0591  0.1991
 7938SOL    HW125264   1.115   7.100   0.600 -0.7682  0.1499  1.6909
 7938SOL    HW225265   1.016   7.024   0.515  0.3633  0.3039  0.2041
 7939SOL     OW25266   4.484   1.535   5.850  0.1377 -0.0912 -0.0100
 7939SOL    HW125267   4.518   1.459   5.898 -0.6551 -0.1851  0.4385
 7939SOL    HW225268   4.544   1.606   5.872  0.3568 -0.3722  0.3154
 7940SOL     OW25269   0.991   1.721   5.504  0.3706 -0.0130  0.2035
 7940SOL    HW125270   1.000   1.691   5.595 -0.8163  0.6133  0.5588
 7940SOL    HW225271   1.061   1.677   5.457  0.1246 -1.5008  1.1450
 7941SOL     OW25272   3.059   0.713   6.260 -0.6954 -0.2372 -0.0326
 7941SOL    HW125273   3.131   0.764   6.224 -1.1268 -0.2635 -0.9621
 7941SOL    HW225274   3.102   0.641   6.308 -0.0830 -0.9907 -1.6294
 7942SOL     OW25275   1.884   1.388   0.011  0.2974  0.1655 -0.0486
 7942SOL    HW125276   1.829   1.358  -0.060 -0.0916  1.4276 -0.3141
 7942SOL    HW225277   1.867   1.328   0.083 -0.3593 -0.2864 -0.5750
 7943SOL     OW25278   1.967   0.002   0.861  0.4897 -0.0142  0.5210
 7943SOL    HW125279   1.973   0.093   0.889 -1.3519 -0.0725  1.2363
 7943SOL    HW225280   1.881  -0.028   0.893  1.5471 -2.3765  1.4536
 7944SOL     OW25281   6.324   3.313   0.439  0.0420 -0.3492  0.0733
 7944SOL    HW125282   6.302   3.307   0.346  2.4023 -0.2780 -0.5494
 7944SOL    HW225283   6.346   3.405   0.452  0.3413 -0.4822  0.5403
 7945SOL     OW25284   0.308   5.346   5.502 -0.5092 -0.4968  0.1320
 7945SOL    HW125285   0.346   5.262   5.529  0.9830  0.5224  1.4028
 7945SOL    HW225286   0.215   5.337   5.524 -0.1777 -1.4315  1.3004
 7946SOL     OW25287   5.364   0.286   2.382 -0.1909 -0.3978 -0.5243
 7946SOL    HW125288   5.454   0.301   2.352  0.1621  0.9845  1.0837
 7946SOL    HW225289   5.371   0.217   2.447 -0.4582 -0.9968 -1.1205
 7947SOL     OW25290   0.598   0.974   0.653 -0.1447  0.4101  0.4658
 7947SOL    HW125291   0.628   1.064   0.640 -1.0566  0.6437 -0.1157
 7947SOL    HW225292   0.510   0.983   0.689  0.1974 -0.2589  1.5105
 7948SOL     OW25293   2.918   0.865   1.016  0.3114  0.0631  0.2682
 7948SOL    HW125294   2.904   0.955   0.986 -0.9859 -0.6546 -1.4070
 7948SOL    HW225295   2.862   0.811   0.960  1.3642 -1.8568  0.9510
 7949SOL     OW25296   5.808   1.265   2.949  0.3200 -0.3160  0.2249
 7949SOL    HW125297   5.787   1.190   2.893 -0.6526 -1.0452  1.4937
 7949SOL    HW225298   5.903   1.268   2.951  0.3791 -1.7559  0.4135
 7950SOL     OW25299   4.140   4.203   3.726 -0.2174  0.6222 -0.5189
 7950SOL    HW125300   4.169   4.287   3.690 -1.5364  0.3744 -2.2563
 7950SOL    HW225301   4.079   4.168   3.661 -2.8889  0.1941  1.9899
 7951SOL     OW25302   4.800   0.628   3.541  0.1813  0.3218 -0.3571
 7951SOL    HW125303   4.798   0.723   3.545  0.8102  0.3010  1.4366
 7951SOL    HW225304   4.891   0.606   3.524  0.0090  0.0321 -0.9334
 7952SOL     OW25305   3.977   6.931   1.810  0.1153  0.1803 -0.1445
 7952SOL    HW125306   3.907   6.874   1.779 -0.2777 -0.1238  1.2378
 7952SOL    HW225307   4.032   6.945   1.733 -1.8466  1.0480 -1.4671
 7953SOL     OW25308   3.899   0.872   2.831 -0.3347 -0.6170 -0.4579
 7953SOL    HW125309   3.869   0.781   2.833 -0.2056 -0.6713 -0.9938
 7953SOL    HW225310   3.989   0.868   2.863 -0.9901 -0.3981  1.6002
 7954SOL     OW25311   6.895   1.779   2.819  0.2811  0.3678 -0.7421
 7954SOL    HW125312   6.845   1.776   2.738  0.3188 -0.3218 -0.7477
 7954SOL    HW225313   6.963   1.712   2.808 -0.9369 -1.1779  0.6408
 7955SOL     OW25314   1.439   1.242   4.023 -0.4951 -0.2389  0.5876
 7955SOL    HW125315   1.490   1.198   3.955 -0.1545  0.7399  0.2001
 7955SOL    HW225316   1.467   1.200   4.105  0.6368 -0.0147  0.3387
 7956SOL     OW25317   4.426   1.898   4.073  0.1531  0.5519 -0.3517
 7956SOL    HW125318   4.486   1.941   4.013  0.0512  1.5269  0.2184
 7956SOL    HW225319   4.470   1.900   4.158 -0.6179  1.1955  0.0541
 7957SOL     OW25320   4.783   0.140   6.193  0.0199  0.7529 -0.2938
 7957SOL    HW125321   4.846   0.089   6.244 -1.4921 -0.6901  0.2276
 7957SOL    HW225322   4.754   0.209   6.252 -0.6149 -0.0119  0.3099
 7958SOL     OW25323   1.549   2.445   5.768  0.3690  0.5040  0.1737
 7958SOL    HW125324   1.526   2.527   5.726  0.0869  1.0508  1.3542
 7958SOL    HW225325   1.560   2.467   5.861  0.4132 -0.7604  0.4988
 7959SOL     OW25326   3.253   5.865   1.722  0.1522  0.2347 -0.0845
 7959SOL    HW125327   3.212   5.951   1.728  1.4355  0.9082 -0.5746
 7959SOL    HW225328   3.184   5.804   1.748 -1.2572  1.2786 -1.1637
 7960SOL     OW25329   5.167   6.640   4.728  0.0866 -0.4188  0.7722
 7960SOL    HW125330   5.172   6.719   4.782 -1.8971  0.4524 -0.2226
 7960SOL    HW225331   5.222   6.660   4.652  0.5170 -0.4660  1.0683
 7961SOL     OW25332   0.651   2.330   1.037 -0.4147  0.3273 -0.5275
 7961SOL    HW125333   0.645   2.420   1.069 -2.5588  0.5509 -1.3730
 7961SOL    HW225334   0.608   2.277   1.104 -2.7221  0.4908 -1.7948
 7962SOL     OW25335   2.289   0.729   4.320 -0.2802  0.0397  0.5562
 7962SOL    HW125336   2.292   0.753   4.412  1.3517  2.8474 -0.1288
 7962SOL    HW225337   2.202   0.757   4.290 -1.3576 -2.1217  1.4491
 7963SOL     OW25338   2.312   1.169   7.106 -0.4140  0.3064 -0.5387
 7963SOL    HW125339   2.257   1.136   7.036 -1.3286 -0.0180  0.3153
 7963SOL    HW225340   2.275   1.255   7.128 -0.0700  0.4526 -0.5122
 7964SOL     OW25341   6.311   5.424   4.804 -0.0649 -0.4350 -0.3823
 7964SOL    HW125342   6.297   5.391   4.893  0.0761  0.9297  0.1699
 7964SOL    HW225343   6.400   5.459   4.805 -0.4931  0.7073 -0.6858
 7965SOL     OW25344   6.344   4.842   6.534 -0.2439 -0.0238 -0.4023
 7965SOL    HW125345   6.410   4.827   6.467 -0.5036 -0.8955 -0.4710
 7965SOL    HW225346   6.350   4.766   6.592 -2.7401 -1.3457 -1.6954
 7966SOL     OW25347   5.194   1.226   3.403 -0.6488 -0.2818 -0.1353
 7966SOL    HW125348   5.223   1.159   3.464 -0.9314 -1.3608 -1.1460
 7966SOL    HW225349   5.274   1.269   3.374 -0.4026 -0.6893 -0.0541
 7967SOL     OW25350   2.678   4.884   0.879 -0.0601  0.1036 -0.0810
 7967SOL    HW125351   2.701   4.973   0.906  1.3222  0.1604 -1.3099
 7967SOL    HW225352   2.584   4.877   0.897  0.2705  0.9456  2.3373
 7968SOL     OW25353   6.135   2.181   0.920  0.6965 -0.3225 -0.2053
 7968SOL    HW125354   6.055   2.219   0.956  0.2307 -1.5556  0.0958
 7968SOL    HW225355   6.153   2.234   0.842  0.9341  1.4730  1.0201
 7969SOL     OW25356   3.926   3.424   3.167  0.2942 -0.1516 -0.4773
 7969SOL    HW125357   3.977   3.484   3.112  0.3970 -1.6272 -2.0934
 7969SOL    HW225358   3.991   3.384   3.225  0.2170  1.2750  0.6460
 7970SOL     OW25359   4.222   2.735   2.463  0.4366  0.0439 -0.3953
 7970SOL    HW125360   4.168   2.689   2.398  0.6523 -0.2135 -0.3968
 7970SOL    HW225361   4.226   2.675   2.537  1.7916 -0.5352 -0.8942
 7971SOL     OW25362   6.500   1.288   3.693 -0.8750  0.9593 -0.6118
 7971SOL    HW125363   6.499   1.207   3.643 -2.9548  0.6582 -0.2022
 7971SOL    HW225364   6.509   1.260   3.784  0.0497  1.3214 -0.5776
 7972SOL     OW25365   6.339   4.125   3.871  0.0291 -0.1261 -0.1995
 7972SOL    HW125366   6.283   4.060   3.829 -1.8844  1.1373  0.2742
 7972SOL    HW225367   6.328   4.205   3.819  0.6560  0.4078  0.4611
 7973SOL     OW25368   2.317   1.193   3.923 -0.3516 -0.4808 -0.0110
 7973SOL    HW125369   2.254   1.132   3.960  2.5286 -2.4802  2.0652
 7973SOL    HW225370   2.322   1.264   3.987 -1.3080  0.3048 -0.7816
 7974SOL     OW25371   6.985   0.846   3.838  0.2382  0.0747  0.3157
 7974SOL    HW125372   7.071   0.803   3.834  0.1025 -0.0792 -1.3415
 7974SOL    HW225373   7.005   0.939   3.836  0.3521  0.0367 -0.9634
 7975SOL     OW25374   3.699   5.072   2.601  0.2164  0.2830 -0.5341
 7975SOL    HW125375   3.613   5.050   2.638 -0.8086  0.9175 -2.3935
 7975SOL    HW225376   3.681   5.146   2.542  2.1623  0.8319 -0.4869
 7976SOL     OW25377   2.786   6.225   2.278  0.0581 -0.6888 -0.4431
 7976SOL    HW125378   2.743   6.210   2.362  0.3979  1.0889  0.0926
 7976SOL    HW225379   2.718   6.264   2.223  0.7524  1.5845  0.2213
 7977SOL     OW25380   4.082   5.646   5.758  0.1887  0.3855  0.4990
 7977SOL    HW125381   4.142   5.701   5.707  0.0429 -0.1180 -0.2295
 7977SOL    HW225382   3.997   5.689   5.748 -0.1744 -0.6243 -1.1210
 7978SOL     OW25383   6.412   1.933   0.169 -0.1789  0.0088  0.6813
 7978SOL    HW125384   6.460   1.855   0.141  0.1249  0.3460  0.2449
 7978SOL    HW225385   6.457   1.963   0.247  0.7297  0.6816 -0.0734
 7979SOL     OW25386   0.592   5.786   2.192 -0.2695 -0.1177  0.3599
 7979SOL    HW125387   0.577   5.737   2.274  0.6078 -0.1464  0.5171
 7979SOL    HW225388   0.687   5.780   2.179 -0.6012 -1.9125 -1.7836
 7980SOL     OW25389   4.550   3.999   5.048 -0.0118  0.2715  0.5291
 7980SOL    HW125390   4.469   3.950   5.033  0.7107 -1.0341  0.7607
 7980SOL    HW225391   4.618   3.932   5.054  1.1527  1.3657 -0.0196
 7981SOL     OW25392   7.133   2.184   0.872  0.2684 -0.4811  0.3263
 7981SOL    HW125393   7.075   2.181   0.796  1.3046  0.8784 -0.5798
 7981SOL    HW225394   7.204   2.124   0.851  0.6700  0.0617  0.0900
 7982SOL     OW25395   6.326   6.663   1.987 -0.0155  0.2536 -0.4154
 7982SOL    HW125396   6.309   6.644   2.079 -0.1331  0.0921 -0.4705
 7982SOL    HW225397   6.297   6.585   1.940  2.2574 -0.6482 -0.4047
 7983SOL     OW25398   2.012   6.574   5.137  0.8665 -0.5871 -0.1934
 7983SOL    HW125399   2.060   6.492   5.127  1.3226 -0.3659  0.1238
 7983SOL    HW225400   2.029   6.622   5.056  0.3345 -0.9386 -0.5153
 7984SOL     OW25401   7.002   4.581   6.005  0.5821  0.0908 -0.1788
 7984SOL    HW125402   7.045   4.582   6.090 -0.7798 -0.7895  0.5418
 7984SOL    HW225403   7.021   4.668   5.968 -0.8083  1.4504  2.0653
 7985SOL     OW25404   6.343   3.736   4.110 -0.8097  0.7100  0.6876
 7985SOL    HW125405   6.252   3.761   4.093 -0.5587  2.5258  1.7206
 7985SOL    HW225406   6.337   3.659   4.165 -1.6932  0.2382 -0.0334
 7986SOL     OW25407   5.057   0.119   6.701 -0.1920 -0.0963 -0.0970
 7986SOL    HW125408   5.151   0.126   6.685 -0.3130 -1.1889 -1.5086
 7986SOL    HW225409   5.030   0.040   6.653 -1.8793  0.3758 -0.0036
 7987SOL     OW25410   3.042   6.842   1.037 -0.3246  0.5216  0.3940
 7987SOL    HW125411   3.112   6.785   1.006 -0.2538  0.3215  0.9147
 7987SOL    HW225412   2.982   6.849   0.962 -0.7459 -0.8852  0.5671
 7988SOL     OW25413   1.646   3.650   3.156 -0.3599  0.3505  0.7535
 7988SOL    HW125414   1.604   3.657   3.241 -1.1848 -2.8855  0.7228
 7988SOL    HW225415   1.739   3.633   3.175 -0.1501  1.5966  0.9215
 7989SOL     OW25416   7.066   5.490   4.481  0.3390 -0.0567 -0.0910
 7989SOL    HW125417   7.100   5.498   4.571 -1.4048 -0.5106  0.6547
 7989SOL    HW225418   7.004   5.417   4.485 -0.1132  0.2122 -1.5639
 7990SOL     OW25419   3.682   2.681   0.428 -0.3015 -0.3948 -0.0845
 7990SOL    HW125420   3.774   2.658   0.412 -0.9244 -1.5138 -2.4737
 7990SOL    HW225421   3.675   2.771   0.396 -0.1285 -0.4671 -0.3345
 7991SOL     OW25422   2.222   5.924   3.486 -0.1294  0.0053  0.4477
 7991SOL    HW125423   2.259   5.874   3.413 -0.6181  2.7599 -1.9064
 7991SOL    HW225424   2.290   5.923   3.553  0.3445 -2.6738  0.0137
 7992SOL     OW25425   2.171   2.408   0.070  0.3421  0.1141 -0.0422
 7992SOL    HW125426   2.266   2.415   0.061  0.3603  0.3109  0.2912
 7992SOL    HW225427   2.142   2.362  -0.009  0.6791  0.3350 -0.2937
 7993SOL     OW25428   5.418   3.908   5.703 -0.0372  0.0502 -0.1642
 7993SOL    HW125429   5.410   3.865   5.788  0.7519  0.7384  0.2782
 7993SOL    HW225430   5.328   3.933   5.680 -0.1918  0.4296  0.7810
 7994SOL     OW25431   2.471   6.665   6.692 -0.2863 -0.0265 -0.2531
 7994SOL    HW125432   2.465   6.693   6.784  2.3273  0.4752 -0.1560
 7994SOL    HW225433   2.412   6.590   6.686  0.0950 -0.6148  2.0836
 7995SOL     OW25434   0.812   4.028   2.173  0.1593  0.2945 -0.0007
 7995SOL    HW125435   0.747   4.025   2.102  0.9123 -0.0205 -0.6912
 7995SOL    HW225436   0.867   3.951   2.158  1.5534  1.3039 -0.2598
 7996SOL     OW25437   4.760   3.007   2.197  0.0978  0.2341 -0.5349
 7996SOL    HW125438   4.784   2.933   2.140  0.2551 -0.9383  1.0056
 7996SOL    HW225439   4.680   3.043   2.158  0.3288 -0.3878 -1.6163
 7997SOL     OW25440   6.995   3.464   2.907 -0.7326 -0.1684  0.2030
 7997SOL    HW125441   7.036   3.549   2.892 -1.1380  0.1721  1.0217
 7997SOL    HW225442   6.905   3.485   2.933 -0.5819 -0.8150  1.2621
 7998SOL     OW25443   2.316   5.195   3.746 -0.1835 -0.1962 -0.0979
 7998SOL    HW125444   2.255   5.265   3.726  0.3685  0.1612 -0.5392
 7998SOL    HW225445   2.336   5.154   3.662  0.3229 -0.1960  0.0184
 7999SOL     OW25446   3.479   4.855   3.145 -0.3872 -0.1734 -0.2046
 7999SOL    HW125447   3.494   4.887   3.056 -0.4440 -0.0002 -0.1516
 7999SOL    HW225448   3.459   4.762   3.134  0.8695 -0.4603 -0.2745
 8000SOL     OW25449   2.248   2.500   2.750 -0.1373 -0.4536 -0.5678
 8000SOL    HW125450   2.187   2.469   2.816  0.7751  1.1633  1.1238
 8000SOL    HW225451   2.303   2.564   2.796  0.3684  0.9573 -2.9638
 8001SOL     OW25452   2.050   3.681   2.249 -0.3915 -0.5184 -0.4127
 8001SOL    HW125453   2.044   3.766   2.205 -0.2340 -0.0788  0.4030
 8001SOL    HW225454   2.129   3.687   2.302  0.1290 -1.5125 -1.0340
 8002SOL     OW25455   2.193   3.444   3.654 -0.1537  1.1652 -0.0834
 8002SOL    HW125456   2.227   3.383   3.719 -0.5480  0.9508 -0.0744
 8002SOL    HW225457   2.098   3.432   3.658 -0.1037 -0.7592 -2.5315
 8003SOL     OW25458   1.236   2.217   0.777 -0.0845  0.3271 -0.0679
 8003SOL    HW125459   1.313   2.225   0.833  1.4026  1.8094 -2.1778
 8003SOL    HW225460   1.227   2.123   0.762  0.2198  0.0062  1.5985
 8004SOL     OW25461   2.410   6.216   5.282 -0.3455  0.3562 -0.1616
 8004SOL    HW125462   2.341   6.175   5.230 -1.2466  0.4307  0.9485
 8004SOL    HW225463   2.387   6.198   5.372 -0.3172  2.5738  0.3487
 8005SOL     OW25464   6.335   6.533   3.898  0.1425 -0.2293 -1.1008
 8005SOL    HW125465   6.423   6.501   3.876  0.1418 -0.5004 -0.7159
 8005SOL    HW225466   6.350   6.609   3.954  0.1331 -0.2289 -1.0985
 8006SOL     OW25467   2.709   5.249   3.084 -0.0640  0.9136 -0.5910
 8006SOL    HW125468   2.800   5.273   3.068 -0.4319  1.3766 -2.1965
 8006SOL    HW225469   2.698   5.165   3.039 -0.7774  1.5461 -1.6368
 8007SOL     OW25470   6.889   3.076   5.280 -0.6224  0.1058 -0.3936
 8007SOL    HW125471   6.974   3.041   5.310  0.1025  0.8540 -1.4913
 8007SOL    HW225472   6.892   3.169   5.304 -1.5949 -0.0691  0.4939
 8008SOL     OW25473   2.107   3.615   6.013  0.3014  0.4007 -0.7926
 8008SOL    HW125474   2.078   3.620   6.104  1.6856  2.7923 -0.3828
 8008SOL    HW225475   2.097   3.523   5.989 -1.9624  0.0720  1.1131
 8009SOL     OW25476   5.223   4.853   7.115 -0.5064  0.1519  0.0429
 8009SOL    HW125477   5.195   4.861   7.206 -0.1844 -0.2124  0.1793
 8009SOL    HW225478   5.221   4.942   7.081 -0.3441  0.3299  0.4915
 8010SOL     OW25479   4.798   4.618   0.062  0.0400 -0.2883 -0.3451
 8010SOL    HW125480   4.779   4.607  -0.031 -0.7600  1.3777 -0.4190
 8010SOL    HW225481   4.741   4.690   0.090  1.7948  0.6975  0.9242
 8011SOL     OW25482   2.893   5.679   0.382 -0.4490 -0.2142 -0.1654
 8011SOL    HW125483   2.892   5.591   0.420  0.9021 -0.2778 -0.2239
 8011SOL    HW225484   2.810   5.686   0.335 -1.9869 -0.3068  2.3675
 8012SOL     OW25485   4.213   1.059   5.199 -0.8921  0.3660 -0.4267
 8012SOL    HW125486   4.286   1.071   5.138  0.2405 -2.9855  0.0738
 8012SOL    HW225487   4.252   1.073   5.286 -0.8032 -1.3308 -0.1639
 8013SOL     OW25488   6.382   5.127   2.553 -0.0671  0.2144 -0.1043
 8013SOL    HW125489   6.351   5.195   2.493 -1.8124  0.0402  0.5446
 8013SOL    HW225490   6.477   5.139   2.556  0.1533  0.0807 -3.0634
 8014SOL     OW25491   3.156   2.179   7.052 -0.3986 -0.8285  0.0147
 8014SOL    HW125492   3.166   2.127   6.973 -0.2378 -1.2157  0.2856
 8014SOL    HW225493   3.217   2.140   7.115  0.3856  0.2424 -0.0521
 8015SOL     OW25494   1.356   0.363   0.218 -0.0540 -0.0001  0.2736
 8015SOL    HW125495   1.348   0.295   0.152  1.4694 -0.0699  0.1246
 8015SOL    HW225496   1.327   0.443   0.174  1.7940  0.1253 -0.8265
 8016SOL     OW25497   6.671   6.254   5.753  0.3779  0.0877  0.0215
 8016SOL    HW125498   6.725   6.192   5.704  0.6156 -0.2957  0.7524
 8016SOL    HW225499   6.663   6.330   5.696  0.1020 -0.6094 -0.8814
 8017SOL     OW25500   2.620   1.052   5.890 -0.0036  0.1167 -0.5169
 8017SOL    HW125501   2.702   1.081   5.930  0.3071 -0.0628 -1.0081
 8017SOL    HW225502   2.620   0.957   5.901  0.3816 -0.0116 -1.4534
 8018SOL     OW25503   3.402   3.023   3.200  0.3934 -0.3451 -0.1222
 8018SOL    HW125504   3.449   2.941   3.193 -1.0396 -1.2518  0.4917
 8018SOL    HW225505   3.470   3.091   3.194  1.7034 -1.5787  0.4271
 8019SOL     OW25506   5.077   0.500   3.776 -0.1599  0.6541 -0.2344
 8019SOL    HW125507   5.016   0.426   3.780  0.8669 -0.1695  1.0192
 8019SOL    HW225508   5.073   0.529   3.685 -1.7615  0.0780 -0.3838
 8020SOL     OW25509   1.409   3.778   7.064  0.6178 -0.2549 -0.2006
 8020SOL    HW125510   1.440   3.746   7.149  0.5031 -0.6587 -0.3107
 8020SOL    HW225511   1.317   3.801   7.079  0.1961 -1.5990 -0.5383
 8021SOL     OW25512   4.462   3.192   1.704 -0.3145 -0.2368 -0.0821
 8021SOL    HW125513   4.385   3.219   1.653  0.1022 -0.0590 -0.6208
 8021SOL    HW225514   4.427   3.173   1.791 -0.8708  0.4894 -0.1379
 8022SOL     OW25515   3.399   4.204   4.607  0.0068 -0.5295 -0.1997
 8022SOL    HW125516   3.383   4.169   4.520  3.0491 -0.4873 -0.8980
 8022SOL    HW225517   3.394   4.128   4.665  0.8498 -1.1153 -0.8689
 8023SOL     OW25518   4.335   4.176   5.526 -0.3371 -0.3631 -0.4352
 8023SOL    HW125519   4.331   4.098   5.472  2.4768 -0.4449 -0.6665
 8023SOL    HW225520   4.388   4.151   5.602 -1.1990  0.7476  0.5879
 8024SOL     OW25521   3.011   5.952   5.738  0.5829  0.7379 -0.3610
 8024SOL    HW125522   3.059   5.908   5.808  0.4256 -2.1500 -1.9086
 8024SOL    HW225523   2.919   5.943   5.761  0.5760  1.2264 -0.1785
 8025SOL     OW25524   1.163   3.376   0.030 -0.4213  0.6080  0.0895
 8025SOL    HW125525   1.250   3.355   0.064 -0.0683 -0.5421 -1.3881
 8025SOL    HW225526   1.178   3.447  -0.033 -0.8573  1.7206  1.1970
 8026SOL     OW25527   0.483   1.270   5.331  0.1767 -0.4206  0.7431
 8026SOL    HW125528   0.502   1.288   5.423  2.5311  0.2252  0.1927
 8026SOL    HW225529   0.546   1.323   5.283 -0.5077 -1.3147 -1.2340
 8027SOL     OW25530   1.168   6.989   3.795  0.0218 -0.6347  0.1242
 8027SOL    HW125531   1.258   6.958   3.803  0.5428  0.5262 -0.9544
 8027SOL    HW225532   1.155   7.002   3.701 -0.8792  0.3269  0.3579
 8028SOL     OW25533   1.209   0.911   1.341  0.3755 -0.5816 -0.1265
 8028SOL    HW125534   1.290   0.933   1.387 -0.2427  0.7685  0.3507
 8028SOL    HW225535   1.142   0.909   1.409  0.1374 -2.7431 -0.3409
 8029SOL     OW25536   3.630   2.910   6.951 -0.6137 -0.0098 -0.1120
 8029SOL    HW125537   3.641   2.847   6.880  0.4195 -2.4907  2.0834
 8029SOL    HW225538   3.536   2.926   6.954 -0.8903 -1.2821 -0.8893
 8030SOL     OW25539   7.070   2.835   5.698 -0.8392 -0.2335 -0.6074
 8030SOL    HW125540   7.098   2.780   5.772  0.0363 -0.2774 -0.9707
 8030SOL    HW225541   7.019   2.905   5.739 -0.4542 -0.3162  0.0346
 8031SOL     OW25542   6.576   3.695   4.484 -0.0517 -0.1748 -0.5469
 8031SOL    HW125543   6.518   3.723   4.555  0.8426  1.6076 -0.4635
 8031SOL    HW225544   6.585   3.773   4.429  2.4662 -0.2866 -0.3940
 8032SOL     OW25545   4.655   6.517   1.198 -0.3075  0.2059 -0.0823
 8032SOL    HW125546   4.624   6.530   1.108  0.1337 -1.1362 -0.4452
 8032SOL    HW225547   4.675   6.424   1.203 -0.8990  0.1500  1.6064
 8033SOL     OW25548   5.988   0.278   6.682 -0.2386 -0.6198 -0.3263
 8033SOL    HW125549   6.066   0.293   6.737 -0.3609  0.9269 -0.5344
 8033SOL    HW225550   5.915   0.296   6.741 -0.3759  0.5782 -0.8323
 8034SOL     OW25551   6.731   3.511   5.773  0.2748 -0.4132 -0.2766
 8034SOL    HW125552   6.819   3.548   5.774  0.5999 -1.0205 -2.1434
 8034SOL    HW225553   6.716   3.486   5.682 -0.7000 -2.9473  0.4648
 8035SOL     OW25554   2.401   5.472   3.332 -0.2670 -0.0125 -0.0295
 8035SOL    HW125555   2.438   5.457   3.246  0.6368 -0.6457  0.4558
 8035SOL    HW225556   2.392   5.568   3.338  0.2133  0.0702 -0.5903
 8036SOL     OW25557   1.988   5.812   5.461  0.7672  1.0296 -0.1368
 8036SOL    HW125558   1.990   5.894   5.411  1.9580  0.3682 -1.2296
 8036SOL    HW225559   2.078   5.779   5.457  1.0714  1.2031  2.9351
 8037SOL     OW25560   2.377   4.750   1.568 -0.6882  0.0925  0.0138
 8037SOL    HW125561   2.369   4.671   1.515  0.6395 -0.8545  1.1238
 8037SOL    HW225562   2.433   4.724   1.641 -0.1525  2.0863  0.3874
 8038SOL     OW25563   6.307   0.003   6.071  0.4559 -0.2214  0.0836
 8038SOL    HW125564   6.349  -0.048   6.141 -1.7395 -0.1461  1.5627
 8038SOL    HW225565   6.213  -0.014   6.083 -0.0463  0.6177 -2.2425
 8039SOL     OW25566   1.607   2.050   1.849  0.1373 -0.1748 -0.0736
 8039SOL    HW125567   1.599   1.972   1.904 -0.4196 -0.4981 -0.5996
 8039SOL    HW225568   1.698   2.078   1.860  0.2129 -0.6204  0.4845
 8040SOL     OW25569   0.506   2.958   5.549 -0.1129  0.1154  0.1885
 8040SOL    HW125570   0.460   2.877   5.525 -1.8059  0.9172  0.5667
 8040SOL    HW225571   0.497   3.015   5.473  0.2432  0.2817  0.2709
 8041SOL     OW25572   6.740   4.333   1.768  0.2221  0.0302 -0.3652
 8041SOL    HW125573   6.816   4.357   1.822  0.2169 -1.1435  0.1919
 8041SOL    HW225574   6.693   4.416   1.754  0.2941  0.3909  1.3434
 8042SOL     OW25575   6.844   0.691   2.153  0.1239 -0.2010 -0.0673
 8042SOL    HW125576   6.838   0.742   2.073  0.1643 -0.9892 -0.5851
 8042SOL    HW225577   6.938   0.688   2.173  0.1026  0.0998  0.0800
 8043SOL     OW25578   2.450   3.338   4.046  0.6455  0.5139  0.3411
 8043SOL    HW125579   2.520   3.277   4.022 -0.4941 -0.3767 -0.8938
 8043SOL    HW225580   2.465   3.415   3.991  1.2873  0.7924  0.8961
 8044SOL     OW25581   4.013   3.541   0.204  0.0050 -0.0825  0.4424
 8044SOL    HW125582   4.077   3.524   0.273  0.9121 -1.3604 -0.6664
 8044SOL    HW225583   4.025   3.634   0.183  0.8503 -0.0815  0.8992
 8045SOL     OW25584   6.842   6.780   1.116 -0.1918 -0.7111  0.2130
 8045SOL    HW125585   6.849   6.688   1.143  0.1070 -0.8482 -0.3047
 8045SOL    HW225586   6.930   6.815   1.129  0.2256 -1.0409 -1.4544
 8046SOL     OW25587   1.275   5.448   5.701 -0.1719 -1.0257 -0.3881
 8046SOL    HW125588   1.260   5.370   5.754  0.8402  0.0967  1.6689
 8046SOL    HW225589   1.263   5.418   5.611 -0.1290 -3.4698  0.3362
 8047SOL     OW25590   1.139   3.967   2.965 -0.1619 -0.2093  0.2592
 8047SOL    HW125591   1.108   4.021   2.892  1.2169 -1.2842 -1.1992
 8047SOL    HW225592   1.209   3.913   2.927  2.0612  0.6295  2.8509
 8048SOL     OW25593   4.611   2.235   2.716  0.6521 -0.3856  0.2644
 8048SOL    HW125594   4.592   2.328   2.707  0.5297 -0.4084  0.2927
 8048SOL    HW225595   4.688   2.232   2.772  2.5343 -0.1543 -2.1353
 8049SOL     OW25596   1.292   2.711   3.331 -0.4368  0.2435 -0.2920
 8049SOL    HW125597   1.356   2.737   3.398 -1.1765  0.0923  0.4982
 8049SOL    HW225598   1.208   2.712   3.377 -0.7524 -1.5952 -0.7399
 8050SOL     OW25599   2.413   6.746   4.823 -0.3634  0.8656 -0.0909
 8050SOL    HW125600   2.426   6.708   4.736 -0.9882  1.2083 -0.3394
 8050SOL    HW225601   2.330   6.708   4.853  1.8113 -2.6344  2.1852
 8051SOL     OW25602   1.577   0.440   2.536 -0.9538  0.0133 -0.4288
 8051SOL    HW125603   1.619   0.409   2.616  0.2213  0.7718 -0.7238
 8051SOL    HW225604   1.618   0.389   2.466  0.1759  1.3814 -0.8046
 8052SOL     OW25605   0.332   3.340   5.177 -0.0087 -0.4013  0.3492
 8052SOL    HW125606   0.399   3.408   5.185 -1.7826  1.5123 -0.1974
 8052SOL    HW225607   0.260   3.370   5.232 -1.1927 -1.3819 -0.6031
 8053SOL     OW25608   6.085   2.953   5.490 -0.0461  1.0321 -0.5460
 8053SOL    HW125609   6.104   2.865   5.456  0.7122  1.1795 -0.5066
 8053SOL    HW225610   6.170   2.995   5.498 -0.0940  0.7953  2.1309
 8054SOL     OW25611   5.592   2.600   1.164  0.2471  0.6700  0.1018
 8054SOL    HW125612   5.602   2.610   1.069  0.0271  1.0777  0.1186
 8054SOL    HW225613   5.500   2.579   1.176  0.3805  0.1446  0.1894
 8055SOL     OW25614   4.883   2.166   0.989  0.0273  0.4574  0.3501
 8055SOL    HW125615   4.933   2.202   1.062  0.0557 -1.3222  1.2491
 8055SOL    HW225616   4.829   2.239   0.959  0.8295  1.5280  1.4218
 8056SOL     OW25617   1.647   5.891   4.170  0.6469 -0.0253 -0.8978
 8056SOL    HW125618   1.680   5.846   4.247  0.5140  0.1384 -0.7458
 8056SOL    HW225619   1.554   5.905   4.188  1.0768  2.0858 -0.0699
 8057SOL     OW25620   6.032   7.040   6.134 -0.9786 -0.1861 -0.2140
 8057SOL    HW125621   6.067   6.996   6.057 -0.1309  2.2104 -1.3165
 8057SOL    HW225622   5.937   7.039   6.120 -0.9494 -1.2029 -0.4328
 8058SOL     OW25623   5.325   1.256   2.909  0.0297 -0.5117  0.3163
 8058SOL    HW125624   5.379   1.238   2.987  2.2646  1.3620 -0.6759
 8058SOL    HW225625   5.263   1.322   2.939  0.3285 -0.4119  0.7371
 8059SOL     OW25626   0.182   4.722   2.959  0.3956  0.1557 -0.2615
 8059SOL    HW125627   0.162   4.781   2.886  0.5385  0.2679 -0.2111
 8059SOL    HW225628   0.234   4.652   2.919 -0.0413 -0.1055 -0.3815
 8060SOL     OW25629   6.229   4.511   5.422  0.3844 -0.4892 -0.3684
 8060SOL    HW125630   6.241   4.423   5.456 -0.1897 -0.4177  0.0284
 8060SOL    HW225631   6.151   4.505   5.367  2.0477 -0.9479 -2.8993
 8061SOL     OW25632   2.871   3.760   2.632 -0.1791 -0.0822 -0.4879
 8061SOL    HW125633   2.964   3.779   2.636 -0.1044 -0.6329  0.5704
 8061SOL    HW225634   2.842   3.761   2.723 -1.3510  0.7560 -0.8466
 8062SOL     OW25635   0.168   6.574   5.262  0.1287  0.2191 -0.0535
 8062SOL    HW125636   0.096   6.625   5.225 -0.7777 -1.7037 -1.0502
 8062SOL    HW225637   0.126   6.507   5.315  1.2722  0.0753  0.7155
 8063SOL     OW25638   1.794   5.982   0.127  0.1002 -0.2312  0.0167
 8063SOL    HW125639   1.786   6.064   0.078  0.4240 -0.5535 -0.5843
 8063SOL    HW225640   1.762   5.915   0.068  3.1154 -1.0204 -0.9063
 8064SOL     OW25641   1.120   2.811   2.411 -0.2834 -0.0682  0.5498
 8064SOL    HW125642   1.167   2.874   2.465 -1.7587  2.3769 -0.8421
 8064SOL    HW225643   1.148   2.829   2.322  0.4623 -2.5590  0.1947
 8065SOL     OW25644   5.832   2.916   5.560  0.2461  0.2672 -0.1645
 8065SOL    HW125645   5.925   2.933   5.546  0.1252  1.0509 -0.0841
 8065SOL    HW225646   5.829   2.864   5.640  0.4686  3.2319  1.9781
 8066SOL     OW25647   6.847   5.317   1.384  0.3274 -0.2747  0.2298
 8066SOL    HW125648   6.915   5.253   1.406  0.0300 -0.3699  0.8831
 8066SOL    HW225649   6.878   5.399   1.422  0.1815 -0.2705  0.3401
 8067SOL     OW25650   6.953   0.567   4.952 -0.3588 -0.3642 -0.4181
 8067SOL    HW125651   6.904   0.580   5.033 -0.4473 -2.6186 -0.0507
 8067SOL    HW225652   6.929   0.479   4.923 -0.8914  0.6069 -3.3094
 8068SOL     OW25653   6.413   2.852   6.517  0.6351  0.2881 -0.1561
 8068SOL    HW125654   6.496   2.805   6.508  0.9691  0.4521  1.6472
 8068SOL    HW225655   6.422   2.928   6.461  0.8102 -0.8374 -1.7080
 8069SOL     OW25656   4.920   4.759   5.205 -0.1729  0.2131 -0.2932
 8069SOL    HW125657   4.872   4.840   5.221 -1.7984 -0.9412  0.8743
 8069SOL    HW225658   4.993   4.761   5.268 -2.3162 -0.8557  2.4189
 8070SOL     OW25659   3.109   3.735   5.112  0.0757  0.0448 -0.1503
 8070SOL    HW125660   3.095   3.828   5.129 -0.0308 -0.2030  1.2160
 8070SOL    HW225661   3.031   3.692   5.145  0.6223 -0.6277  0.2954
 8071SOL     OW25662   2.709   4.502   2.558 -0.0677 -0.5859 -1.1394
 8071SOL    HW125663   2.637   4.564   2.565  1.4794  1.3915 -1.6695
 8071SOL    HW225664   2.668   4.415   2.563 -2.4866  0.4503 -1.8019
 8072SOL     OW25665   5.361   6.695   5.540  0.1108  0.0289  0.2832
 8072SOL    HW125666   5.357   6.734   5.627 -1.6606  0.4955  0.0316
 8072SOL    HW225667   5.277   6.717   5.500 -0.1473 -2.3293 -0.6292
 8073SOL     OW25668   1.106   5.524   1.338 -0.0289  0.4935 -0.1557
 8073SOL    HW125669   1.029   5.578   1.351  0.0102 -0.0962  3.5142
 8073SOL    HW225670   1.094   5.450   1.398  2.4812 -0.6434 -0.9195
 8074SOL     OW25671   0.481   7.074   3.230 -0.7979 -0.0434  0.2831
 8074SOL    HW125672   0.449   6.998   3.278 -1.1942  0.1220  0.2846
 8074SOL    HW225673   0.577   7.064   3.231 -0.8282 -0.3461  0.6006
 8075SOL     OW25674   4.152   1.334   6.774  0.0584  0.3720  0.2516
 8075SOL    HW125675   4.135   1.307   6.865  0.1891 -2.4357 -0.4557
 8075SOL    HW225676   4.247   1.333   6.766  0.0932  1.6854  0.3423
 8076SOL     OW25677   3.955   1.747   0.920 -0.2533 -0.0627  0.7096
 8076SOL    HW125678   4.014   1.823   0.917  0.7455 -0.7222  2.3403
 8076SOL    HW225679   4.012   1.672   0.934 -1.3749 -0.8802  1.0922
 8077SOL     OW25680   2.371   5.289   0.185  0.0267  0.8717 -0.4160
 8077SOL    HW125681   2.326   5.301   0.269  1.6113  1.8941  0.3588
 8077SOL    HW225682   2.355   5.198   0.162  1.9762 -0.3880  2.5695
 8078SOL     OW25683   3.589   0.081   5.271  0.4428  0.3320 -0.4744
 8078SOL    HW125684   3.535   0.109   5.198  0.5447  1.2030 -0.2298
 8078SOL    HW225685   3.528   0.071   5.344  0.0965 -1.9948 -1.0053
 8079SOL     OW25686   0.552   5.434   3.264 -0.1292 -0.7430  0.1974
 8079SOL    HW125687   0.485   5.372   3.236 -1.2970 -0.8845  2.9951
 8079SOL    HW225688   0.517   5.520   3.243  0.4075 -0.8943 -1.4589
 8080SOL     OW25689   1.464   5.884   0.180  0.0265  0.2049 -0.0943
 8080SOL    HW125690   1.502   5.804   0.143 -0.7087 -0.7955  1.2332
 8080SOL    HW225691   1.479   5.876   0.274 -1.2653  0.9665  0.1925
 8081SOL     OW25692   2.972   5.533   3.812 -0.6076 -0.0281 -0.3921
 8081SOL    HW125693   3.067   5.531   3.819 -0.6399 -1.0057 -0.0906
 8081SOL    HW225694   2.952   5.467   3.745 -1.0749  0.1827 -0.4615
 8082SOL     OW25695   0.077   6.495   7.089  0.5372 -0.2880 -0.1286
 8082SOL    HW125696  -0.012   6.522   7.114  0.3695 -1.9436  1.2202
 8082SOL    HW225697   0.075   6.492   6.993 -1.0796 -0.9222 -0.1060
 8083SOL     OW25698   6.833   1.798   1.309  0.3130 -0.4479  0.1463
 8083SOL    HW125699   6.923   1.770   1.294  0.2603 -1.3377  1.3529
 8083SOL    HW225700   6.804   1.832   1.224  1.4717 -1.0263 -0.5030
 8084SOL     OW25701   6.303   6.796   3.575 -0.0755 -0.4725  0.9915
 8084SOL    HW125702   6.378   6.822   3.521 -0.5814 -0.4627  0.2787
 8084SOL    HW225703   6.292   6.868   3.637  1.5357 -1.2323  2.2136
 8085SOL     OW25704   6.323   4.218   3.171  0.4724 -0.1804  0.2647
 8085SOL    HW125705   6.377   4.221   3.092  0.6493  3.4281  0.3826
 8085SOL    HW225706   6.385   4.235   3.243 -0.2896  0.6953  0.7355
 8086SOL     OW25707   3.834   5.881   1.579  0.2818  0.1976 -0.5176
 8086SOL    HW125708   3.857   5.855   1.668  0.1418 -0.3534 -0.6430
 8086SOL    HW225709   3.874   5.968   1.569  2.3612 -0.7186 -0.7364
 8087SOL     OW25710   1.889   6.109   3.652 -0.0821  0.2058 -0.4211
 8087SOL    HW125711   1.875   6.159   3.572  1.4867  0.0485 -0.8265
 8087SOL    HW225712   1.816   6.134   3.709 -0.5022  1.3180 -1.4069
 8088SOL     OW25713   4.025   6.215   6.503  0.1364  0.1904  0.4428
 8088SOL    HW125714   3.985   6.134   6.534 -1.8157  1.3948  1.2495
 8088SOL    HW225715   4.067   6.192   6.420 -0.0294 -1.7041  0.8512
 8089SOL     OW25716   4.155   1.396   6.193 -0.2772 -0.4999 -0.2552
 8089SOL    HW125717   4.063   1.371   6.182 -0.3305 -0.3782 -0.0921
 8089SOL    HW225718   4.161   1.426   6.284 -0.0153 -0.7729 -0.1787
 8090SOL     OW25719   0.272   3.109   2.670  0.0997 -0.3003 -0.6435
 8090SOL    HW125720   0.312   3.029   2.635 -0.4469 -0.7371 -0.3030
 8090SOL    HW225721   0.184   3.082   2.696 -0.4331  0.6477 -1.4023
 8091SOL     OW25722   4.018   5.209   4.742 -0.4597 -0.4428  0.2103
 8091SOL    HW125723   4.017   5.304   4.746  0.1044 -0.4708  2.0420
 8091SOL    HW225724   3.964   5.187   4.666 -0.8112  1.3133 -0.0806
 8092SOL     OW25725   3.465   0.943   2.821  0.6838  0.0979  0.4822
 8092SOL    HW125726   3.536   0.936   2.757 -0.3099  1.2610 -0.8119
 8092SOL    HW225727   3.390   0.901   2.778  0.7119 -1.7705  2.1193
 8093SOL     OW25728   7.063   5.170   0.252  0.3391 -0.3361  0.0218
 8093SOL    HW125729   7.139   5.136   0.299  2.6021  3.0043 -0.8780
 8093SOL    HW225730   7.093   5.180   0.161 -1.3418  0.5907 -0.4765
 8094SOL     OW25731   0.577   1.954   3.628  0.2156  0.8543 -0.0922
 8094SOL    HW125732   0.561   1.966   3.535 -0.5083  0.0859 -0.0748
 8094SOL    HW225733   0.587   1.860   3.640  0.2384  0.9358  0.6193
 8095SOL     OW25734   6.940   3.864   3.106  0.0072  0.7134  0.3803
 8095SOL    HW125735   7.023   3.867   3.057 -1.1823  1.1163 -1.7264
 8095SOL    HW225736   6.964   3.892   3.194  2.4288 -0.8757  0.3408
 8096SOL     OW25737   5.047   3.770   4.430  0.0784  0.2021  0.2821
 8096SOL    HW125738   5.134   3.769   4.389 -0.8977 -2.5360 -2.0747
 8096SOL    HW225739   5.036   3.682   4.465 -2.2164  0.0943 -0.5732
 8097SOL     OW25740   4.442   4.099   5.280  0.4385  0.4638 -0.0523
 8097SOL    HW125741   4.443   4.111   5.185  1.3183  1.5186  0.0621
 8097SOL    HW225742   4.373   4.156   5.311 -1.0088 -1.1512 -0.1660
 8098SOL     OW25743   1.110   6.433   4.411  0.4004 -0.2283 -0.3174
 8098SOL    HW125744   1.024   6.470   4.393  0.1257 -1.3047 -1.3873
 8098SOL    HW225745   1.165   6.466   4.340  0.2078 -1.6042 -1.1530
 8099SOL     OW25746   2.019   2.136   2.155 -0.0536 -0.0131 -0.2319
 8099SOL    HW125747   2.034   2.208   2.215  1.5948 -0.7909  0.3487
 8099SOL    HW225748   1.987   2.178   2.075  1.8060  1.5078 -0.2684
 8100SOL     OW25749   6.361   6.177   3.349  0.3443 -0.4177 -0.0362
 8100SOL    HW125750   6.323   6.253   3.305 -0.4663  0.1569  1.6115
 8100SOL    HW225751   6.436   6.152   3.293 -0.1199  0.8042 -1.2473
 8101SOL     OW25752   4.142   6.495   3.617 -0.1185 -0.0812  0.2259
 8101SOL    HW125753   4.182   6.569   3.662  1.6108 -1.1097  0.4789
 8101SOL    HW225754   4.060   6.529   3.583 -0.0731  1.5338  1.6041
 8102SOL     OW25755   5.706   6.887   7.018  0.0510  0.2672 -0.1860
 8102SOL    HW125756   5.725   6.909   6.926 -1.0929  1.0035 -0.2688
 8102SOL    HW225757   5.764   6.814   7.038  1.1653  0.8604 -1.1419
 8103SOL     OW25758   6.111   6.626   5.978 -0.2327  0.1685  0.2770
 8103SOL    HW125759   6.169   6.586   6.042  0.4205 -0.1800 -0.5171
 8103SOL    HW225760   6.159   6.702   5.945 -0.3437  0.0537 -0.1633
 8104SOL     OW25761   1.796   4.364   2.404 -0.6875 -0.0265 -0.0657
 8104SOL    HW125762   1.827   4.423   2.472 -0.1862  1.5403 -1.5810
 8104SOL    HW225763   1.801   4.277   2.443  0.0299  0.7770  1.7117
 8105SOL     OW25764   4.001   2.887   7.019 -0.0670 -0.4522 -0.0042
 8105SOL    HW125765   4.096   2.892   7.023  0.0192 -0.1889 -1.6877
 8105SOL    HW225766   3.983   2.833   6.941 -1.2885 -0.6702  0.4090
 8106SOL     OW25767   6.341   2.355   3.771 -0.2801 -0.4655  0.6553
 8106SOL    HW125768   6.427   2.389   3.796 -0.5101 -0.3614  1.3183
 8106SOL    HW225769   6.314   2.300   3.845 -2.0342  1.7346  1.7531
 8107SOL     OW25770   4.687   3.335   1.166  0.0043 -0.4579  0.6509
 8107SOL    HW125771   4.664   3.425   1.144  0.6168 -0.2516  0.8386
 8107SOL    HW225772   4.782   3.334   1.166  0.0679 -1.7442 -1.9969
 8108SOL     OW25773   6.585   3.773   5.853 -0.4321  0.0221  0.0265
 8108SOL    HW125774   6.607   3.702   5.793 -0.7296 -0.8351  0.8980
 8108SOL    HW225775   6.569   3.848   5.797 -0.3892 -0.6718 -0.9367
 8109SOL     OW25776   1.132   0.906   0.303 -0.2415  0.1253 -0.2989
 8109SOL    HW125777   1.049   0.911   0.256 -1.2168  2.6605  1.4220
 8109SOL    HW225778   1.112   0.854   0.381  0.5932 -1.6534 -1.2359
 8110SOL     OW25779   1.027   3.631   0.594  0.2988 -0.4106 -0.5346
 8110SOL    HW125780   1.083   3.683   0.652 -0.7921 -0.1125  0.2951
 8110SOL    HW225781   1.070   3.546   0.589  1.5404  0.2220 -1.0342
 8111SOL     OW25782   2.356   3.887   2.575  0.0531 -0.0022  0.4179
 8111SOL    HW125783   2.384   3.799   2.601 -1.0343  0.0193  1.7180
 8111SOL    HW225784   2.436   3.939   2.578  0.2823 -0.4127  1.9984
 8112SOL     OW25785   2.375   4.789   3.742 -0.3506 -0.5148 -0.0101
 8112SOL    HW125786   2.437   4.790   3.815 -1.2218  2.3217  0.8446
 8112SOL    HW225787   2.306   4.729   3.770  0.4843 -1.3216  0.3918
 8113SOL     OW25788   2.523   5.988   3.552 -0.4491  0.1487 -0.1826
 8113SOL    HW125789   2.563   5.953   3.472  0.9688 -1.5478  1.1669
 8113SOL    HW225790   2.571   6.069   3.569 -1.5805  1.1814 -1.6298
 8114SOL     OW25791   3.975   5.178   0.660  0.2451 -0.0951 -0.0234
 8114SOL    HW125792   3.939   5.254   0.706 -0.4476 -0.2527 -0.2951
 8114SOL    HW225793   3.901   5.117   0.652  0.0340  0.3809 -2.3222
 8115SOL     OW25794   2.490   4.272   3.216 -0.6000  0.1695 -0.1256
 8115SOL    HW125795   2.467   4.264   3.123 -0.8195 -0.7203 -0.0037
 8115SOL    HW225796   2.562   4.211   3.229 -1.2304 -0.4674  0.4966
 8116SOL     OW25797   1.993   3.219   1.661  0.2002 -0.3047  0.2595
 8116SOL    HW125798   2.036   3.138   1.634  0.0591 -0.6140  0.9218
 8116SOL    HW225799   1.996   3.216   1.757 -2.5752 -1.0694  0.4090
 8117SOL     OW25800   5.200   3.065   1.217 -0.0377  0.0737 -1.0732
 8117SOL    HW125801   5.248   3.087   1.297 -3.1070  1.1400  0.6392
 8117SOL    HW225802   5.268   3.043   1.154  2.6476  1.2429  1.1859
 8118SOL     OW25803   0.268   0.201   4.567 -0.0002  0.2965 -0.3965
 8118SOL    HW125804   0.294   0.239   4.482 -1.2790  0.2129 -0.8424
 8118SOL    HW225805   0.172   0.207   4.567 -0.3021 -2.9847 -0.5186
 8119SOL     OW25806   3.225   6.167   4.932  0.3786 -0.3628  0.3100
 8119SOL    HW125807   3.175   6.243   4.962  0.7978  0.6409 -1.3852
 8119SOL    HW225808   3.159   6.105   4.902  0.0841  0.4782 -0.8351
 8120SOL     OW25809   0.532   0.133   1.476 -0.6505  0.0186 -0.3911
 8120SOL    HW125810   0.511   0.203   1.413  0.2307  2.3007  1.6676
 8120SOL    HW225811   0.609   0.166   1.522 -0.9390 -1.8021  1.5119
 8121SOL     OW25812   6.882   4.435   2.865  0.0626 -0.7514 -0.2725
 8121SOL    HW125813   6.832   4.353   2.870  0.0096 -0.7236 -0.3400
 8121SOL    HW225814   6.971   4.410   2.887  0.2068 -0.9700 -1.0755
 8122SOL     OW25815   2.713   0.373   4.763 -0.0728  0.2666  0.5885
 8122SOL    HW125816   2.723   0.462   4.728 -1.6923  0.1790 -0.2233
 8122SOL    HW225817   2.755   0.317   4.698  0.7857  0.4142  1.0076
 8123SOL     OW25818   2.093   6.251   4.428  0.3315 -0.2246 -0.8590
 8123SOL    HW125819   2.067   6.162   4.404  0.1691 -0.8174  1.2898
 8123SOL    HW225820   2.175   6.241   4.476  0.1433  0.7329 -0.2982
 8124SOL     OW25821   1.719   6.390   6.290  0.2750  0.2467 -0.0737
 8124SOL    HW125822   1.669   6.409   6.369 -0.9578 -0.2795 -0.7014
 8124SOL    HW225823   1.799   6.443   6.298  0.6520 -0.5535  1.9779
 8125SOL     OW25824   4.572   4.777   5.363 -0.1555  0.0351 -0.1484
 8125SOL    HW125825   4.574   4.687   5.330 -0.9759 -0.3847  0.8964
 8125SOL    HW225826   4.479   4.796   5.375 -0.1484  1.7162 -2.1267
 8126SOL     OW25827   6.987   5.242   6.575  0.0033 -0.5952 -0.4984
 8126SOL    HW125828   7.028   5.279   6.497 -0.7712  1.4029 -0.0263
 8126SOL    HW225829   6.896   5.273   6.571  0.1483  0.2822  1.5870
 8127SOL     OW25830   5.248   3.492   6.183  0.0682 -0.2880 -0.5273
 8127SOL    HW125831   5.252   3.464   6.091  0.0434  1.4258 -1.0883
 8127SOL    HW225832   5.155   3.484   6.206 -0.1151  0.3524 -1.0190
 8128SOL     OW25833   0.617   2.020   4.515 -0.1570  0.6492 -0.7815
 8128SOL    HW125834   0.572   2.003   4.432 -0.5877  1.7413 -0.7782
 8128SOL    HW225835   0.547   2.028   4.580  0.0964  1.2834 -0.5814
 8129SOL     OW25836   0.698   6.413   6.164 -0.1876 -0.2484 -0.0074
 8129SOL    HW125837   0.745   6.495   6.149 -0.9612  0.0018 -1.3137
 8129SOL    HW225838   0.766   6.349   6.186  0.8053  0.0734 -1.9177
 8130SOL     OW25839   3.961   0.961   6.409  1.0376  0.3555  0.0619
 8130SOL    HW125840   3.927   1.026   6.470 -0.5233 -0.6843  0.3552
 8130SOL    HW225841   3.944   0.876   6.451  1.4634 -0.3211 -1.0596
 8131SOL     OW25842   3.312   1.291   1.020 -0.6271  0.1403  0.3352
 8131SOL    HW125843   3.349   1.231   1.084 -0.3885  1.2049  1.2297
 8131SOL    HW225844   3.325   1.378   1.058 -2.1375  0.6873 -0.3217
 8132SOL     OW25845   4.410   1.637   6.859  0.1404 -0.2779  0.5009
 8132SOL    HW125846   4.373   1.669   6.942 -0.5964 -2.3024  0.9925
 8132SOL    HW225847   4.493   1.598   6.884 -0.9476 -2.6289  0.6576
 8133SOL     OW25848   3.759   1.048   2.982  0.0756  0.5441  0.1998
 8133SOL    HW125849   3.818   0.999   2.925 -1.2594  0.9445 -1.5950
 8133SOL    HW225850   3.673   1.008   2.969 -0.7103  2.2037  0.0311
 8134SOL     OW25851   2.864   6.811   3.787  0.1041  0.2111 -0.0214
 8134SOL    HW125852   2.928   6.741   3.795  0.5733  0.8407  2.2772
 8134SOL    HW225853   2.782   6.773   3.819  0.4496  0.7724  1.6223
 8135SOL     OW25854   1.484   3.392   6.373 -0.1106  0.0631  0.0444
 8135SOL    HW125855   1.429   3.325   6.412 -0.1433  0.0690  0.0086
 8135SOL    HW225856   1.496   3.458   6.442  1.0600 -0.6368  0.5498
 8136SOL     OW25857   1.264   4.519   0.280  0.2345  0.0427 -0.9613
 8136SOL    HW125858   1.214   4.465   0.341 -0.0579 -0.1090 -1.3331
 8136SOL    HW225859   1.252   4.477   0.195  0.0993  0.6287 -1.2327
 8137SOL     OW25860   6.355   5.936   1.266 -0.5236 -0.1666 -0.1872
 8137SOL    HW125861   6.333   5.883   1.342 -0.0162 -0.3207 -0.1478
 8137SOL    HW225862   6.272   5.980   1.243 -1.1972 -1.7092 -0.8260
 8138SOL     OW25863   3.357   4.776   6.425  0.0581 -0.2398 -0.3488
 8138SOL    HW125864   3.415   4.723   6.370  0.1238 -0.5817  0.0445
 8138SOL    HW225865   3.327   4.847   6.367  0.4730 -0.3433 -0.6963
 8139SOL     OW25866   6.363   3.664   6.048  0.3865 -0.3501  0.0971
 8139SOL    HW125867   6.430   3.598   6.065 -0.1377 -1.2049 -1.0585
 8139SOL    HW225868   6.280   3.615   6.048  0.0007  0.2756 -0.9278
 8140SOL     OW25869   3.148   0.829   6.541  0.4214 -0.1477 -0.4549
 8140SOL    HW125870   3.124   0.739   6.521 -1.0981  0.5476 -1.9895
 8140SOL    HW225871   3.220   0.849   6.481  0.9701 -0.4070  0.1008
 8141SOL     OW25872   1.294   2.469   5.152 -0.1654 -0.2124  0.2092
 8141SOL    HW125873   1.231   2.505   5.090 -1.3566  0.4235  1.7242
 8141SOL    HW225874   1.244   2.407   5.205 -0.1341  1.7552  2.7587
 8142SOL     OW25875   1.370   4.204   5.767  0.3325 -0.3371  0.5578
 8142SOL    HW125876   1.436   4.269   5.743 -0.9932  1.1702  0.8221
 8142SOL    HW225877   1.302   4.212   5.700 -1.6183  1.2768  2.5519
 8143SOL     OW25878   0.678   4.350   3.940  0.4342 -0.0275 -0.0925
 8143SOL    HW125879   0.755   4.338   3.996 -0.0994  3.0877  1.5813
 8143SOL    HW225880   0.608   4.306   3.987  0.5467  0.1544  0.2537
 8144SOL     OW25881   3.219   7.028   0.939  0.1308 -0.6088  0.2221
 8144SOL    HW125882   3.264   7.041   1.022  0.3398 -1.5536  0.2571
 8144SOL    HW225883   3.130   7.002   0.963  0.3400 -1.4051  0.1612
 8145SOL     OW25884   2.480   1.414   7.006 -0.1850 -0.1528  0.3103
 8145SOL    HW125885   2.466   1.342   7.067  0.8991 -0.1688  0.5603
 8145SOL    HW225886   2.556   1.461   7.041 -0.4050  0.6581 -0.2714
 8146SOL     OW25887   3.487   2.341   3.425 -0.0366  0.2244  0.3849
 8146SOL    HW125888   3.448   2.426   3.407 -1.9666 -0.8876 -1.0286
 8146SOL    HW225889   3.566   2.339   3.370 -1.1459  0.3157 -1.2981
 8147SOL     OW25890   5.194   4.728   3.089  0.0012  0.0397 -0.1315
 8147SOL    HW125891   5.240   4.654   3.049 -1.6610 -0.4849 -1.2032
 8147SOL    HW225892   5.102   4.701   3.089 -0.5971  1.9459 -0.1371
 8148SOL     OW25893   6.995   4.234   3.325 -0.1154 -0.0402  0.2537
 8148SOL    HW125894   6.979   4.329   3.323  0.1596  0.0128 -1.5030
 8148SOL    HW225895   7.091   4.227   3.316 -0.1986 -0.4729 -0.3754
 8149SOL     OW25896   0.256   2.866   5.807 -0.3702 -0.2071 -0.3148
 8149SOL    HW125897   0.298   2.869   5.721 -2.1847  0.4595 -1.2319
 8149SOL    HW225898   0.314   2.916   5.863 -0.1626  1.1246 -1.6484
 8150SOL     OW25899   3.951   1.582   4.211 -0.7331  0.4222  0.3218
 8150SOL    HW125900   4.010   1.513   4.241 -0.8447 -0.1774 -0.8018
 8150SOL    HW225901   3.864   1.553   4.238 -0.7850  0.0871 -0.1883
 8151SOL     OW25902   5.692   5.146   2.153  0.3169  0.2328  0.3311
 8151SOL    HW125903   5.705   5.053   2.167 -0.8025 -0.2640 -1.5436
 8151SOL    HW225904   5.780   5.182   2.143  0.7167 -0.7724  0.1829
 8152SOL     OW25905   5.965   5.098   5.653 -0.3525 -0.3130  0.6659
 8152SOL    HW125906   5.979   5.046   5.733  0.1863 -0.1252  0.7028
 8152SOL    HW225907   5.893   5.157   5.675 -1.0779 -1.1426  0.5699
 8153SOL     OW25908   1.948   5.226   5.859  0.2372 -0.3555  0.3592
 8153SOL    HW125909   1.978   5.164   5.925  0.3789 -1.3908 -0.6371
 8153SOL    HW225910   1.958   5.179   5.776  1.0441  1.2672 -0.5089
 8154SOL     OW25911   6.150   4.834   3.101 -0.7119 -0.2488 -0.5151
 8154SOL    HW125912   6.244   4.844   3.092 -0.8628  1.8849 -0.3119
 8154SOL    HW225913   6.127   4.888   3.177 -2.1125 -0.5539 -0.6859
 8155SOL     OW25914   4.777   0.191   6.740  0.2082 -0.2511 -0.2503
 8155SOL    HW125915   4.817   0.227   6.819  0.1036  1.0234 -0.7504
 8155SOL    HW225916   4.798   0.098   6.743 -1.3986 -0.6346  2.2635
 8156SOL     OW25917   2.693   1.565   6.406 -0.6368  0.1110 -0.0458
 8156SOL    HW125918   2.731   1.557   6.319 -0.7117  0.6487 -0.1348
 8156SOL    HW225919   2.627   1.496   6.411 -0.6372  0.0855 -0.4193
 8157SOL     OW25920   4.197   0.421   4.544  0.4038 -0.5496  0.7924
 8157SOL    HW125921   4.118   0.453   4.500  1.4160  0.1265 -0.6568
 8157SOL    HW225922   4.167   0.351   4.601 -1.1500 -0.7760 -0.2470
 8158SOL     OW25923   2.675   5.427   3.681 -0.0453  0.0323  0.5840
 8158SOL    HW125924   2.599   5.480   3.657 -0.6104 -0.9270  0.2048
 8158SOL    HW225925   2.711   5.396   3.597  1.2455  1.0869  0.7002
 8159SOL     OW25926   6.039   2.377   6.201 -0.0275 -0.1581 -0.1132
 8159SOL    HW125927   6.046   2.284   6.177  0.4605  0.1608 -1.2626
 8159SOL    HW225928   5.950   2.402   6.177 -0.1149 -0.2918  0.0692
 8160SOL     OW25929   5.312   1.966   0.931 -0.0148  0.3199 -0.1426
 8160SOL    HW125930   5.323   1.937   0.840 -1.2740  0.9901 -0.5374
 8160SOL    HW225931   5.387   1.928   0.977  0.8204  0.2176 -1.5101
 8161SOL     OW25932   0.353   4.921   4.026 -0.0198 -0.1607 -0.7048
 8161SOL    HW125933   0.302   4.888   3.952  0.8775 -0.0448 -1.3994
 8161SOL    HW225934   0.299   4.991   4.063 -0.9083 -0.8733 -0.6377
 8162SOL     OW25935   3.022   0.643   5.002  0.2947 -0.3552 -0.1334
 8162SOL    HW125936   3.023   0.652   5.097  0.4997 -1.9212  0.0446
 8162SOL    HW225937   2.930   0.646   4.978  0.0425 -2.3801  0.4250
 8163SOL     OW25938   0.911   0.427   2.116  0.5296 -0.3645 -0.3111
 8163SOL    HW125939   0.833   0.391   2.158 -0.4189  0.3255 -1.4168
 8163SOL    HW225940   0.930   0.507   2.166  0.1273 -0.1833 -0.4427
 8164SOL     OW25941   1.531   2.277   5.216  0.0594 -0.1562 -0.8715
 8164SOL    HW125942   1.558   2.217   5.286 -0.0697 -1.7176 -2.1146
 8164SOL    HW225943   1.439   2.294   5.235  0.2471  0.1503 -0.1777
 8165SOL     OW25944   6.231   4.401   6.059 -0.2952 -0.1308  0.3722
 8165SOL    HW125945   6.266   4.391   5.971  0.7621 -1.5543  0.9209
 8165SOL    HW225946   6.262   4.487   6.087  1.1219 -0.5284  0.0966
 8166SOL     OW25947   5.701   3.961   1.878 -0.4812 -0.0934  0.2493
 8166SOL    HW125948   5.608   3.982   1.885 -0.4646 -0.2177  0.9814
 8166SOL    HW225949   5.708   3.906   1.800 -1.0934 -0.4334  0.4261
 8167SOL     OW25950   4.763   5.780   5.399 -0.7161  0.3085 -0.0261
 8167SOL    HW125951   4.704   5.796   5.473  0.2639  3.0302  0.2450
 8167SOL    HW225952   4.717   5.816   5.323 -0.2088  0.7708 -0.1211
 8168SOL     OW25953   4.082   6.864   1.556 -0.5948  0.5410 -0.4007
 8168SOL    HW125954   4.069   6.778   1.517 -0.0519  0.1330  0.3020
 8168SOL    HW225955   4.176   6.868   1.575 -1.0185  0.1532  2.1503
 8169SOL     OW25956   1.232   5.256   6.798  0.0896 -0.2011 -0.0566
 8169SOL    HW125957   1.169   5.192   6.830  2.1933 -2.1565  0.4496
 8169SOL    HW225958   1.253   5.227   6.709  1.1877 -0.3793  0.2404
 8170SOL     OW25959   3.135   1.253   2.635  0.4727  0.1752 -0.1955
 8170SOL    HW125960   3.195   1.323   2.611  0.2251  0.1437 -0.9234
 8170SOL    HW225961   3.048   1.294   2.634  0.4041  0.0490  0.1655
 8171SOL     OW25962   5.944   2.027   1.634  0.2057 -0.1223  0.8371
 8171SOL    HW125963   6.026   2.024   1.584  0.2987 -0.5985  1.0128
 8171SOL    HW225964   5.879   2.060   1.571 -0.1150 -2.6021 -0.2764
 8172SOL     OW25965   4.120   4.857   5.588  0.3302 -0.0414  0.2214
 8172SOL    HW125966   4.163   4.829   5.668 -0.2006 -1.2027  0.1195
 8172SOL    HW225967   4.119   4.953   5.593  1.4607 -0.0511  0.9708
 8173SOL     OW25968   2.048   0.386   6.824  0.2620  0.1406  0.2354
 8173SOL    HW125969   2.086   0.307   6.863  1.0458  0.9265  1.1114
 8173SOL    HW225970   1.957   0.361   6.805  0.6095 -1.1029  0.0922
 8174SOL     OW25971   6.356   4.230   0.597 -0.1536 -0.6032 -0.7095
 8174SOL    HW125972   6.347   4.209   0.690  0.0417 -2.2333 -1.0152
 8174SOL    HW225973   6.427   4.295   0.593  1.4631 -2.2239  0.1402
 8175SOL     OW25974   0.165   1.372   3.537 -0.1860  0.3904 -0.0248
 8175SOL    HW125975   0.135   1.436   3.602 -1.1276  0.0413 -0.0987
 8175SOL    HW225976   0.093   1.368   3.474  0.4952  0.3372 -0.8130
 8176SOL     OW25977   0.589   1.308   3.534 -0.4857  0.3165  0.0183
 8176SOL    HW125978   0.520   1.244   3.551 -0.7256  0.1466 -1.4518
 8176SOL    HW225979   0.544   1.392   3.530 -0.7368  0.1428 -1.4913
 8177SOL     OW25980   4.614   0.695   4.905  0.3705 -0.3238 -0.2878
 8177SOL    HW125981   4.572   0.772   4.943  0.6120 -0.8672  1.1261
 8177SOL    HW225982   4.564   0.678   4.825  0.7344  1.6670 -0.9880
 8178SOL     OW25983   5.891   2.863   4.898 -0.5560  0.3370 -0.3896
 8178SOL    HW125984   5.847   2.947   4.909 -1.7581 -0.2871 -0.3580
 8178SOL    HW225985   5.831   2.810   4.845  0.3634 -0.3762 -0.7635
 8179SOL     OW25986   3.044   2.894   1.989 -0.0801  0.2284 -0.6382
 8179SOL    HW125987   2.993   2.850   1.921  0.9702  0.2196 -1.4438
 8179SOL    HW225988   3.100   2.955   1.941  0.5810  0.3249  0.2415
 8180SOL     OW25989   1.762   0.069   0.052  0.1816 -0.2925  0.6278
 8180SOL    HW125990   1.854   0.094   0.039 -0.3314  1.0173 -0.7106
 8180SOL    HW225991   1.718   0.150   0.076 -0.6958 -0.8574  0.9907
 8181SOL     OW25992   1.991   0.022   0.585  0.5610 -0.2850 -0.4985
 8181SOL    HW125993   2.002   0.005   0.678 -1.0626  0.9639 -0.0552
 8181SOL    HW225994   1.923  -0.038   0.557  0.0706  0.2908 -0.5620
 8182SOL     OW25995   3.457   6.160   4.069 -0.2056  0.6340 -0.0085
 8182SOL    HW125996   3.484   6.197   4.153  1.5216 -1.5139  0.4764
 8182SOL    HW225997   3.361   6.158   4.074 -0.2148  2.0072  1.2177
 8183SOL     OW25998   1.533   1.334   4.516  0.2019 -0.0343 -0.0052
 8183SOL    HW125999   1.573   1.386   4.585 -2.2336  1.7209  0.2276
 8183SOL    HW226000   1.503   1.398   4.451  0.0611 -1.4369 -1.3970
 8184SOL     OW26001   0.871   0.901   4.134  0.3030 -0.3609  0.4383
 8184SOL    HW126002   0.853   0.991   4.159 -0.6019 -0.7629  1.2937
 8184SOL    HW226003   0.788   0.855   4.149  0.8052 -1.3751  0.1852
 8185SOL     OW26004   6.724   7.137   0.210  0.1349 -0.0903 -0.3103
 8185SOL    HW126005   6.703   7.160   0.301  2.9166  1.8503 -0.0303
 8185SOL    HW226006   6.700   7.214   0.159 -2.1988 -1.4793 -1.4471
 8186SOL     OW26007   5.481   1.265   4.686  0.8563  1.0634  0.4060
 8186SOL    HW126008   5.518   1.319   4.756  2.3656  0.8676 -0.1961
 8186SOL    HW226009   5.400   1.310   4.662  0.5821  1.4217  1.9052
 8187SOL     OW26010   1.312   0.831   2.954  0.5606  0.2636 -0.3366
 8187SOL    HW126011   1.350   0.744   2.964 -0.0758  0.0612  0.3607
 8187SOL    HW226012   1.292   0.860   3.043 -1.9171 -0.0950 -0.7065
 8188SOL     OW26013   0.167   3.784   5.587  0.4738  0.3521 -0.0026
 8188SOL    HW126014   0.149   3.690   5.577  0.0207  0.2739  1.3539
 8188SOL    HW226015   0.082   3.822   5.611  0.6842  1.1037 -0.4110
 8189SOL     OW26016   2.019   3.724   0.118 -0.0532  0.6940 -0.1169
 8189SOL    HW126017   2.077   3.660   0.077 -0.0536  0.3786  0.3670
 8189SOL    HW226018   1.939   3.721   0.065  0.1822  0.7602 -0.4773
 8190SOL     OW26019   2.458   0.415   6.963 -0.0942  0.6400  0.3131
 8190SOL    HW126020   2.411   0.333   6.950  0.5710  0.2119  0.5720
 8190SOL    HW226021   2.423   0.474   6.896  2.2888 -1.0745 -2.6783
 8191SOL     OW26022   2.033   1.235   6.694  0.5227 -0.2101  0.0432
 8191SOL    HW126023   1.992   1.178   6.629 -0.9773  1.0475 -0.1744
 8191SOL    HW226024   1.962   1.258   6.754  0.8052  2.1394 -0.4106
 8192SOL     OW26025   5.918   4.206   2.950 -0.4424  0.8163  0.1876
 8192SOL    HW126026   5.878   4.162   2.876 -0.4966  3.4825 -1.5139
 8192SOL    HW226027   5.849   4.261   2.986 -0.4031 -0.3818  2.2821
 8193SOL     OW26028   2.530   4.981   5.180 -0.0461 -0.3323  0.0984
 8193SOL    HW126029   2.523   5.064   5.225 -2.9650  0.3584 -1.3576
 8193SOL    HW226030   2.549   5.005   5.089  1.9517 -1.4742  0.1577
 8194SOL     OW26031   2.556   3.906   3.731 -0.1961  0.1907 -0.1128
 8194SOL    HW126032   2.573   3.812   3.719 -1.0601  0.0620 -0.3935
 8194SOL    HW226033   2.600   3.927   3.813 -0.3825 -0.5734  0.1994
 8195SOL     OW26034   5.903   4.397   3.366 -0.4529 -0.1530 -0.2013
 8195SOL    HW126035   5.980   4.426   3.318 -1.6502  1.1151 -1.4157
 8195SOL    HW226036   5.930   4.314   3.406  1.2743 -0.1288 -1.2268
 8196SOL     OW26037   2.743   4.190   5.037 -0.0774  0.3244  0.6353
 8196SOL    HW126038   2.782   4.202   4.950  1.7333  1.5358  1.5413
 8196SOL    HW226039   2.741   4.096   5.049 -2.5440 -0.0225 -1.6011
 8197SOL     OW26040   5.876   7.029   1.907  0.0788  0.2318  0.4788
 8197SOL    HW126041   5.892   6.968   1.835 -1.1575  0.9023 -0.3970
 8197SOL    HW226042   5.935   6.999   1.976 -0.9383 -2.3667  0.3413
 8198SOL     OW26043   4.910   5.324   0.293  0.0682 -0.4845 -0.5045
 8198SOL    HW126044   4.825   5.366   0.305  0.3220  0.5977 -2.0998
 8198SOL    HW226045   4.955   5.334   0.377 -1.0221 -0.2488  0.0675
 8199SOL     OW26046   2.465   3.063   1.154  0.6449 -0.0299 -0.1803
 8199SOL    HW126047   2.519   3.035   1.080  0.8204 -2.3280  0.7301
 8199SOL    HW226048   2.392   3.002   1.155 -0.3256  1.0933  0.4876
 8200SOL     OW26049   1.017   5.233   1.072  0.3206  0.0922 -0.6069
 8200SOL    HW126050   0.938   5.222   1.126 -0.1176  0.1381 -1.2235
 8200SOL    HW226051   1.053   5.145   1.064 -0.5747 -0.1974 -1.6527
 8201SOL     OW26052   1.239   5.597   3.574  0.2669  0.4837 -0.1195
 8201SOL    HW126053   1.263   5.543   3.650 -0.9538 -0.2475 -0.2119
 8201SOL    HW226054   1.146   5.579   3.562 -0.0147  2.1488 -0.5667
 8202SOL     OW26055   4.219   3.521   0.396  0.9169  0.2198  0.3857
 8202SOL    HW126056   4.243   3.528   0.488  0.6786  1.5443  0.3728
 8202SOL    HW226057   4.284   3.574   0.350  0.2283  0.6998 -0.0500
 8203SOL     OW26058   1.409   6.424   0.285  0.7554  0.0519  0.0980
 8203SOL    HW126059   1.414   6.517   0.308  2.7862 -0.2131  0.9724
 8203SOL    HW226060   1.328   6.394   0.325  1.8095  0.6888  2.9847
 8204SOL     OW26061   4.988   1.392   1.355 -0.7984 -0.7663 -0.0024
 8204SOL    HW126062   4.979   1.297   1.362  0.4905 -0.8827  0.3877
 8204SOL    HW226063   5.070   1.405   1.307 -2.4826  0.1703 -2.8474
 8205SOL     OW26064   1.735   2.338   0.281 -0.3178 -0.0755  0.3074
 8205SOL    HW126065   1.821   2.373   0.305 -0.7964  0.7636  0.8732
 8205SOL    HW226066   1.754   2.255   0.238  0.7706  0.0546  0.4962
 8206SOL     OW26067   3.578   5.509   6.307 -0.0891 -0.2096 -0.1022
 8206SOL    HW126068   3.642   5.439   6.310 -0.4207 -0.4865  0.6415
 8206SOL    HW226069   3.613   5.571   6.243  1.6010  0.3156  1.2830
 8207SOL     OW26070   2.200   1.699   1.947 -0.3288 -0.4979  0.3450
 8207SOL    HW126071   2.131   1.765   1.945  0.1651  0.0373  0.6612
 8207SOL    HW226072   2.211   1.679   2.041  0.5793  0.1030  0.3785
 8208SOL     OW26073   5.830   6.813   4.407 -0.2865  0.2181  0.5277
 8208SOL    HW126074   5.864   6.824   4.496 -1.9314  0.8618  1.1040
 8208SOL    HW226075   5.741   6.781   4.419 -0.4594  0.1065 -0.9009
 8209SOL     OW26076   6.145   6.189   2.957  0.0055  0.6391  0.8254
 8209SOL    HW126077   6.128   6.172   3.050  1.6784  0.4682  1.1302
 8209SOL    HW226078   6.227   6.237   2.956  0.8894 -0.7701 -0.6369
 8210SOL     OW26079   4.730   1.497   6.012  0.3433  0.3583 -0.6281
 8210SOL    HW126080   4.680   1.431   6.059  2.3520 -2.0561 -1.6951
 8210SOL    HW226081   4.807   1.513   6.067 -0.4068  2.3956 -0.0633
 8211SOL     OW26082   1.739   2.009   1.383  0.0550  0.7092  1.0374
 8211SOL    HW126083   1.664   1.960   1.416 -0.7338  0.5858 -0.8177
 8211SOL    HW226084   1.709   2.100   1.380 -1.8354  0.2762 -3.7622
 8212SOL     OW26085   0.418   5.332   4.837  0.5697 -0.3534 -0.0871
 8212SOL    HW126086   0.400   5.426   4.838  1.1908 -0.2340  0.4545
 8212SOL    HW226087   0.500   5.323   4.885  1.9333 -0.8869 -2.4089
 8213SOL     OW26088   0.175   1.517   3.762 -0.2414 -0.3031  0.3105
 8213SOL    HW126089   0.142   1.606   3.761  0.4709 -0.0278 -0.8057
 8213SOL    HW226090   0.258   1.523   3.810  0.2799 -0.1697 -0.5900
 8214SOL     OW26091   6.490   6.718   5.769 -0.5102  0.3314  0.1091
 8214SOL    HW126092   6.506   6.638   5.819  3.4036  0.9958  0.3050
 8214SOL    HW226093   6.483   6.786   5.835 -0.1056  0.5826 -0.0998
 8215SOL     OW26094   1.993   2.093   0.724 -0.0159 -0.4122  0.0043
 8215SOL    HW126095   1.999   2.187   0.741 -1.2011 -0.2816 -0.1760
 8215SOL    HW226096   2.068   2.055   0.770 -1.8095  0.1404  3.7464
 8216SOL     OW26097   4.618   1.946   5.361 -0.0468  0.5076 -0.0997
 8216SOL    HW126098   4.670   1.947   5.442  1.0541  0.8320 -0.7893
 8216SOL    HW226099   4.544   2.004   5.380 -0.2685 -0.1003  0.9627
 8217SOL     OW26100   6.399   5.227   1.255 -0.3457 -0.3015  0.9844
 8217SOL    HW126101   6.419   5.195   1.343  2.5992  1.4127  1.0685
 8217SOL    HW226102   6.369   5.317   1.268 -1.9153 -0.6835  0.3018
 8218SOL     OW26103   5.103   4.639   1.891  0.2622 -0.1858  0.0092
 8218SOL    HW126104   5.017   4.669   1.864  0.0907 -2.2493 -2.0817
 8218SOL    HW226105   5.164   4.681   1.830  0.5156 -0.3091  0.1762
 8219SOL     OW26106   6.156   3.697   7.031 -0.2573 -0.4209 -0.0795
 8219SOL    HW126107   6.079   3.668   7.081 -0.6992  0.8286 -0.0058
 8219SOL    HW226108   6.208   3.747   7.095  1.9558 -3.2994  0.6140
 8220SOL     OW26109   2.132   0.166   0.401  0.6277  0.8515 -0.0495
 8220SOL    HW126110   2.137   0.252   0.442 -1.2774  1.3339 -0.7609
 8220SOL    HW226111   2.065   0.120   0.451  1.1006  0.0231 -0.1558
 8221SOL     OW26112   3.153   5.804   6.767  0.1187  0.1123 -0.1422
 8221SOL    HW126113   3.177   5.722   6.811  0.8096 -0.3301 -1.3115
 8221SOL    HW226114   3.209   5.870   6.807 -0.0538 -0.0825  0.4287
 8222SOL     OW26115   0.181   6.051   4.963 -0.2022  0.4770 -0.4667
 8222SOL    HW126116   0.109   6.065   4.902  0.1762  1.4426 -0.7160
 8222SOL    HW226117   0.236   6.129   4.953  1.3783 -0.6358 -0.9681
 8223SOL     OW26118   1.946   5.231   4.813  0.5423  0.5101  0.6067
 8223SOL    HW126119   1.908   5.315   4.789  0.2284  0.5407  1.1808
 8223SOL    HW226120   1.885   5.195   4.878  1.6393  0.7026  1.7888
 8224SOL     OW26121   6.255   6.004   4.088 -0.1303  0.2060  0.3779
 8224SOL    HW126122   6.254   6.072   4.021 -0.4312 -0.8493 -0.7237
 8224SOL    HW226123   6.163   5.987   4.107 -0.0455  0.5453  1.1217
 8225SOL     OW26124   3.161   2.458   4.244 -0.7999 -0.1773  0.5999
 8225SOL    HW126125   3.218   2.449   4.320 -0.3060  1.9497  0.5364
 8225SOL    HW226126   3.178   2.379   4.192  0.1935 -0.7910  1.8033
 8226SOL     OW26127   2.560   3.080   0.575 -0.3191 -0.0098  0.2321
 8226SOL    HW126128   2.648   3.093   0.611 -0.8709 -1.4749  2.3074
 8226SOL    HW226129   2.523   3.168   0.571  0.5972  0.4448  1.1856
 8227SOL     OW26130   0.367   0.155   3.404  0.2767 -0.1384  0.3764
 8227SOL    HW126131   0.367   0.063   3.375 -0.1751  0.0573 -0.2647
 8227SOL    HW226132   0.280   0.187   3.380 -0.5595 -0.2451  2.9293
 8228SOL     OW26133   6.741   2.972   1.299  0.0576 -0.1663  0.1817
 8228SOL    HW126134   6.656   2.995   1.262 -0.5709 -0.8063  1.1970
 8228SOL    HW226135   6.804   3.009   1.237 -0.9400 -1.3051 -1.5923
 8229SOL     OW26136   6.835   2.731   0.763 -0.0032 -0.0067  0.2338
 8229SOL    HW126137   6.886   2.783   0.701  0.2971 -0.7417 -0.1520
 8229SOL    HW226138   6.756   2.783   0.778  1.2084  1.5632  1.5296
 8230SOL     OW26139   5.615   0.127   5.081  0.2255 -0.4527  0.0501
 8230SOL    HW126140   5.599   0.034   5.061 -2.8632  0.5324 -3.0385
 8230SOL    HW226141   5.535   0.157   5.123  1.2673  0.8224  1.2096
 8231SOL     OW26142   2.043   4.991   3.480  0.3275  0.5203 -0.0501
 8231SOL    HW126143   1.990   4.984   3.559 -0.0857 -1.0836 -0.4344
 8231SOL    HW226144   2.083   4.905   3.470 -0.9112  0.1517 -2.4789
 8232SOL     OW26145   6.140   2.548   1.565  0.4270 -0.4246 -0.0446
 8232SOL    HW126146   6.098   2.500   1.493  0.8862  0.0377 -0.6350
 8232SOL    HW226147   6.100   2.635   1.561  0.1085 -0.5390  0.5717
 8233SOL     OW26148   1.498   4.346   6.981 -0.1455  0.1578  0.1487
 8233SOL    HW126149   1.543   4.337   6.897  1.8295 -0.5001  1.1967
 8233SOL    HW226150   1.447   4.266   6.990  0.5283 -0.2944  0.0456
 8234SOL     OW26151   4.188   1.235   7.073  0.2838  0.3676 -0.7593
 8234SOL    HW126152   4.206   1.308   7.132 -0.5951 -0.1828  0.2340
 8234SOL    HW226153   4.263   1.177   7.081 -0.5004 -0.4629  1.0535
 8235SOL     OW26154   5.813   6.912   1.473 -0.3250 -0.2678  0.4705
 8235SOL    HW126155   5.726   6.899   1.509 -0.4654  1.0070  0.6403
 8235SOL    HW226156   5.802   6.982   1.409  0.8612  1.1052  1.7049
 8236SOL     OW26157   6.971   4.573   0.719 -0.6692  0.3991 -0.2833
 8236SOL    HW126158   6.991   4.611   0.634  1.4348  1.7947  0.7414
 8236SOL    HW226159   6.899   4.627   0.752  1.4277  2.8842  0.6003
 8237SOL     OW26160   6.369   6.921   2.436  0.2324  0.4176  0.4815
 8237SOL    HW126161   6.280   6.925   2.401  0.6142 -0.7655 -0.6767
 8237SOL    HW226162   6.359   6.879   2.522 -0.1630 -1.3095 -0.3662
 8238SOL     OW26163   1.995   3.690   5.557 -0.4585  0.1194  0.0867
 8238SOL    HW126164   1.980   3.736   5.474  0.6053  2.6839  1.2156
 8238SOL    HW226165   2.062   3.625   5.537 -0.0727  0.8390 -1.0352
 8239SOL     OW26166   2.356   3.108   4.366  0.6606  0.1793  0.0424
 8239SOL    HW126167   2.396   3.068   4.289  0.6087  0.5749 -0.1883
 8239SOL    HW226168   2.418   3.092   4.437  0.0651 -1.4536  0.2485
 8240SOL     OW26169   6.217   4.790   0.546 -0.0232  0.4608 -0.0476
 8240SOL    HW126170   6.206   4.696   0.530  1.1992  0.1994  0.5038
 8240SOL    HW226171   6.143   4.831   0.502 -0.2205 -0.7096 -0.8548
 8241SOL     OW26172   3.129   4.406   1.979 -0.1158  0.2286 -0.2250
 8241SOL    HW126173   3.075   4.354   1.920  0.0479  0.4622 -0.5815
 8241SOL    HW226174   3.217   4.401   1.943  0.2147 -0.5754  0.6404
 8242SOL     OW26175   5.387   4.325   6.016 -0.5065 -0.1810  0.5520
 8242SOL    HW126176   5.393   4.309   6.110 -0.1424 -1.6224  0.2980
 8242SOL    HW226177   5.428   4.249   5.975  0.3061  0.9165 -0.7654
 8243SOL     OW26178   7.136   3.665   6.034 -0.1738  0.4810 -0.8122
 8243SOL    HW126179   7.220   3.622   6.050  0.3451  1.7794  0.0514
 8243SOL    HW226180   7.090   3.660   6.118 -0.2109  1.3750 -0.7746
 8244SOL     OW26181   3.064   4.028   0.907 -0.1546  0.2865 -0.1362
 8244SOL    HW126182   3.108   4.103   0.946 -0.8164  1.0833 -0.8717
 8244SOL    HW226183   3.132   3.983   0.857 -0.1094  1.3819 -1.0905
 8245SOL     OW26184   4.733   6.156   6.984  0.3372  0.4051 -0.0334
 8245SOL    HW126185   4.640   6.142   7.001  0.7660 -1.9372  0.8009
 8245SOL    HW226186   4.742   6.151   6.889 -0.4359  1.2487 -0.1672
 8246SOL     OW26187   4.464   2.314   0.368  0.4575  0.1800 -0.2776
 8246SOL    HW126188   4.557   2.338   0.365  1.2662 -2.1639  2.0731
 8246SOL    HW226189   4.418   2.398   0.380  2.4395  1.2426  0.3293
 8247SOL     OW26190   5.162   3.676   2.898  0.1810 -0.8507  0.4263
 8247SOL    HW126191   5.243   3.674   2.847 -0.6972 -0.3504 -1.0746
 8247SOL    HW226192   5.130   3.586   2.898  1.0908 -1.2058  1.6915
 8248SOL     OW26193   0.885   5.859   2.352 -0.6469  0.0232 -0.3356
 8248SOL    HW126194   0.898   5.952   2.332  1.3496 -0.0648  0.3335
 8248SOL    HW226195   0.918   5.813   2.275  2.8046 -0.1904  1.1145
 8249SOL     OW26196   6.676   6.934   6.876  0.1769  0.6083 -0.0489
 8249SOL    HW126197   6.724   6.922   6.958  0.6846  2.9429  0.0480
 8249SOL    HW226198   6.586   6.908   6.897  0.4001  0.7171  1.1191
 8250SOL     OW26199   1.522   1.080   4.223 -0.0257 -0.8747  0.1374
 8250SOL    HW126200   1.570   1.079   4.305 -3.7402  0.4577  2.5595
 8250SOL    HW226201   1.439   1.037   4.243 -2.3412  2.2072 -1.9867
 8251SOL     OW26202   0.684   5.701   6.658 -0.4493 -0.0772  0.6770
 8251SOL    HW126203   0.671   5.608   6.676 -0.6077  0.0348  1.1448
 8251SOL    HW226204   0.657   5.712   6.566  1.9998 -0.9809 -0.2339
 8252SOL     OW26205   4.248   0.855   4.268  0.0000  0.2209 -0.1246
 8252SOL    HW126206   4.294   0.937   4.290 -0.3713  0.2618  0.5367
 8252SOL    HW226207   4.227   0.816   4.353 -2.5994  0.9941 -0.3280
 8253SOL     OW26208   0.912   4.261   3.686 -0.0518  0.0628 -0.5251
 8253SOL    HW126209   0.838   4.321   3.672 -1.0955 -1.3652 -1.5282
 8253SOL    HW226210   0.989   4.313   3.665 -0.6511  1.9001  1.5178
 8254SOL     OW26211   1.746   1.294   3.539  0.3006 -0.2981  0.3121
 8254SOL    HW126212   1.732   1.331   3.452 -0.1856 -1.3734 -0.0875
 8254SOL    HW226213   1.678   1.227   3.547 -0.5636  0.7290  2.0903
 8255SOL     OW26214   2.622   5.632   4.438  0.2914 -0.8968  0.2948
 8255SOL    HW126215   2.638   5.635   4.344 -0.2531  0.4130  0.2241
 8255SOL    HW226216   2.539   5.584   4.446 -1.0714  1.2142 -0.1449
 8256SOL     OW26217   6.121   6.637   0.064 -0.3227  0.5608 -0.2777
 8256SOL    HW126218   6.081   6.643   0.150  0.4758  1.2274  0.0677
 8256SOL    HW226219   6.192   6.573   0.074  0.3429  1.2974 -0.1918
 8257SOL     OW26220   5.185   5.842   5.385 -0.3848  0.1581  0.2644
 8257SOL    HW126221   5.243   5.802   5.320  0.0498 -0.0848  0.7896
 8257SOL    HW226222   5.110   5.875   5.334  0.8767  1.8064 -0.6511
 8258SOL     OW26223   1.581   6.530   3.198 -0.3876  0.2641  0.0212
 8258SOL    HW126224   1.666   6.527   3.154 -0.8288  2.2160 -1.0631
 8258SOL    HW226225   1.524   6.477   3.142 -0.0410 -0.6403  0.4890
 8259SOL     OW26226   2.585   5.386   1.662 -0.0817  0.0791  0.7524
 8259SOL    HW126227   2.565   5.466   1.615  1.0871 -0.2345 -0.3319
 8259SOL    HW226228   2.576   5.409   1.755 -0.5001  1.2432  0.4360
 8260SOL     OW26229   4.943   6.327   6.780 -0.0335  0.6596 -0.4838
 8260SOL    HW126230   5.007   6.346   6.711 -0.5334  0.1222 -1.1058
 8260SOL    HW226231   4.887   6.259   6.743  0.0427 -0.0607  0.6756
 8261SOL     OW26232   0.134   3.009   0.389  0.5680 -0.2748  0.1482
 8261SOL    HW126233   0.113   2.916   0.398 -0.6941  0.1366  2.1680
 8261SOL    HW226234   0.049   3.053   0.382  1.0678  0.8309  0.7522
 8262SOL     OW26235   3.367   5.694   1.439 -0.2258  0.4677 -0.6005
 8262SOL    HW126236   3.440   5.632   1.449  0.0317  1.0262  1.6154
 8262SOL    HW226237   3.290   5.639   1.426  0.4008 -0.1789 -1.7353
 8263SOL     OW26238   7.073   6.970   2.563 -0.1784  0.4911  0.6989
 8263SOL    HW126239   6.979   6.979   2.549  0.0261  0.5433 -0.7764
 8263SOL    HW226240   7.097   6.890   2.515  0.6476  0.9091  0.3917
 8264SOL     OW26241   3.103   5.799   3.704  0.7050  0.4081 -0.0427
 8264SOL    HW126242   3.019   5.833   3.736  1.0233  1.2451 -0.0652
 8264SOL    HW226243   3.135   5.744   3.775  0.3204  0.4089  0.1341
 8265SOL     OW26244   6.260   6.535   1.575  0.5204  0.3147 -0.4518
 8265SOL    HW126245   6.332   6.582   1.618  1.4702 -0.1727 -1.4551
 8265SOL    HW226246   6.268   6.445   1.606  1.5419 -0.1610 -1.9905
 8266SOL     OW26247   0.458   1.100   3.860  0.1230  0.2239  0.0266
 8266SOL    HW126248   0.496   1.025   3.815 -0.5167 -1.4146  2.0789
 8266SOL    HW226249   0.401   1.062   3.927 -1.7096  2.5650 -0.0818
 8267SOL     OW26250   0.364   6.368   2.836  0.1825 -0.0421 -0.0424
 8267SOL    HW126251   0.280   6.397   2.872  0.5759  1.6065 -0.3533
 8267SOL    HW226252   0.357   6.386   2.742  0.5003 -0.8810 -0.2337
 8268SOL     OW26253   6.635   2.130   0.614  0.3003  0.5814 -0.1023
 8268SOL    HW126254   6.611   2.192   0.682  1.4320  0.1833  0.6875
 8268SOL    HW226255   6.652   2.048   0.660 -1.1261 -0.3379 -1.1206
 8269SOL     OW26256   3.601   4.566   0.802  0.0861 -0.0497  0.0754
 8269SOL    HW126257   3.529   4.616   0.840 -0.7363 -0.8865 -0.3375
 8269SOL    HW226258   3.664   4.632   0.773  1.3971  0.6609  3.9253
 8270SOL     OW26259   3.208   6.726   3.643  0.0106 -0.6087 -0.0488
 8270SOL    HW126260   3.147   6.654   3.660  0.1292 -1.0106 -1.2211
 8270SOL    HW226261   3.266   6.726   3.719 -0.3344 -1.4019  0.2295
 8271SOL     OW26262   7.110   5.089   3.314  0.6065 -0.2314 -0.8150
 8271SOL    HW126263   7.110   5.012   3.258 -1.2238 -1.8766  1.2403
 8271SOL    HW226264   7.171   5.067   3.385  0.8871  0.6715 -0.7669
 8272SOL     OW26265   0.877   5.425   5.967  0.3717  0.2094 -0.0140
 8272SOL    HW126266   0.904   5.380   6.048 -1.2956 -0.0191  0.4521
 8272SOL    HW226267   0.901   5.364   5.897 -3.1480 -2.2842  0.6663
 8273SOL     OW26268   5.498   5.993   3.695  0.0638  0.2617  0.4454
 8273SOL    HW126269   5.490   6.061   3.628  2.4651 -0.8309 -1.0870
 8273SOL    HW226270   5.437   5.925   3.668  0.9888 -0.1547 -0.6776
 8274SOL     OW26271   5.472   6.586   0.116  0.5827  0.0903 -0.4163
 8274SOL    HW126272   5.396   6.552   0.069  2.4623 -1.9787 -2.1807
 8274SOL    HW226273   5.464   6.681   0.110 -0.6565 -0.0989 -2.6572
 8275SOL     OW26274   1.828   0.384   1.209 -0.0862  0.0222 -0.6092
 8275SOL    HW126275   1.845   0.384   1.303 -0.0098 -1.4744 -0.6014
 8275SOL    HW226276   1.894   0.443   1.173  0.4264 -0.0421  0.1835
 8276SOL     OW26277   1.703   5.043   6.585 -0.1408 -0.2710  0.0715
 8276SOL    HW126278   1.671   5.033   6.496 -0.6858  1.2371  0.0737
 8276SOL    HW226279   1.792   5.077   6.576  0.3553 -1.5080  0.1065
 8277SOL     OW26280   4.349   3.571   0.922 -0.4718 -0.3716  0.0235
 8277SOL    HW126281   4.379   3.636   0.985  0.7856 -1.0924  0.1922
 8277SOL    HW226282   4.312   3.501   0.976 -0.4322 -0.4856 -0.0978
 8278SOL     OW26283   0.457   7.142   5.418 -0.4445 -0.1761  0.0964
 8278SOL    HW126284   0.507   7.074   5.463 -2.5794 -1.3279  0.9080
 8278SOL    HW226285   0.401   7.179   5.487 -0.5687  1.1819 -0.7096
 8279SOL     OW26286   0.305   4.403   4.314 -0.2410 -0.0497 -0.0065
 8279SOL    HW126287   0.331   4.324   4.361  1.0989  0.0270 -0.5724
 8279SOL    HW226288   0.319   4.382   4.222 -0.7125  0.5535 -0.2201
 8280SOL     OW26289   2.352   0.178   5.597 -0.5804 -0.0591 -0.0236
 8280SOL    HW126290   2.372   0.212   5.510  0.7031  1.3756  0.7812
 8280SOL    HW226291   2.291   0.242   5.634 -1.4487 -0.8818  0.0086
 8281SOL     OW26292   1.467   5.505   4.435 -0.4308 -0.2494  0.6995
 8281SOL    HW126293   1.556   5.523   4.404 -1.0570  0.1971 -0.9287
 8281SOL    HW226294   1.459   5.556   4.516  0.3085  0.9152  0.0753
 8282SOL     OW26295   0.208   1.280   6.993  0.1173  0.3651 -0.0342
 8282SOL    HW126296   0.303   1.269   6.984  0.0488  0.6645 -1.2745
 8282SOL    HW226297   0.174   1.274   6.904 -1.0322  0.3005  0.3907
 8283SOL     OW26298   0.031   4.829   2.367  0.3479 -0.0837  0.2712
 8283SOL    HW126299   0.015   4.828   2.462  2.3494  2.0876  0.7207
 8283SOL    HW226300  -0.028   4.896   2.333  0.9798  0.5018  0.3069
 8284SOL     OW26301   0.792   2.476   6.592 -0.4872 -0.2236 -0.5321
 8284SOL    HW126302   0.739   2.439   6.662  0.1396  1.8007  1.1177
 8284SOL    HW226303   0.861   2.411   6.579 -0.6949 -0.7259  0.6625
 8285SOL     OW26304   2.403   4.313   2.925  0.3831  0.0717  0.1585
 8285SOL    HW126305   2.365   4.400   2.921  0.8724  0.3218  0.7874
 8285SOL    HW226306   2.333   4.258   2.960  0.2176  0.2962  0.1815
 8286SOL     OW26307   2.517   5.389   6.771  0.0368 -0.0904 -0.0988
 8286SOL    HW126308   2.521   5.479   6.738  0.5201 -0.3202 -0.6983
 8286SOL    HW226309   2.546   5.396   6.862  1.1033  0.2293 -0.4403
 8287SOL     OW26310   3.999   3.600   5.844 -0.0704 -0.5635 -0.4948
 8287SOL    HW126311   3.976   3.666   5.778 -0.5739 -0.4314 -0.1891
 8287SOL    HW226312   4.024   3.651   5.921 -1.1209 -0.7272 -0.0315
 8288SOL     OW26313   6.577   4.678   2.316  0.7109  0.8593  0.2147
 8288SOL    HW126314   6.504   4.627   2.281  1.5238  0.2779 -0.6497
 8288SOL    HW226315   6.572   4.762   2.269  0.2587  1.0414  0.5790
 8289SOL     OW26316   4.150   5.227   4.011 -0.0897  0.3741 -0.2551
 8289SOL    HW126317   4.166   5.216   4.105 -0.8844 -1.0201 -0.2563
 8289SOL    HW226318   4.141   5.322   3.999 -1.3086  0.4975  1.3154
 8290SOL     OW26319   4.157   4.927   6.821 -0.0605 -0.0763  0.0083
 8290SOL    HW126320   4.143   5.010   6.868 -1.2441 -1.0315  1.4340
 8290SOL    HW226321   4.192   4.954   6.736  0.5746  1.8278  0.8087
 8291SOL     OW26322   1.366   6.402   0.852 -0.7453  0.3477 -0.2212
 8291SOL    HW126323   1.314   6.324   0.832  0.8631 -0.6108 -0.8072
 8291SOL    HW226324   1.353   6.459   0.776 -3.4814  1.6129  1.0263
 8292SOL     OW26325   2.615   6.976   2.080  0.0838  0.1988  0.2378
 8292SOL    HW126326   2.663   7.057   2.060  0.6166 -0.0264  0.5840
 8292SOL    HW226327   2.534   6.983   2.029  1.5776 -0.5589 -2.4696
 8293SOL     OW26328   5.364   1.091   0.338 -0.1001 -0.5961 -0.2115
 8293SOL    HW126329   5.390   1.184   0.337  0.2911 -0.7009 -1.2375
 8293SOL    HW226330   5.336   1.075   0.428 -1.1073  0.7675 -0.2521
 8294SOL     OW26331   5.496   5.867   5.626 -0.2922 -0.0572  0.5261
 8294SOL    HW126332   5.432   5.877   5.555  1.2493  0.9029 -0.8093
 8294SOL    HW226333   5.581   5.862   5.581  0.7606  0.7752  2.3095
 8295SOL     OW26334   4.687   2.709   4.258 -0.1693 -0.3275  0.0738
 8295SOL    HW126335   4.715   2.769   4.327 -0.2752  0.5065 -0.5929
 8295SOL    HW226336   4.768   2.687   4.212 -0.1921 -0.3284  0.0336
 8296SOL     OW26337   0.510   2.439   4.097 -0.2244  0.6277 -0.2284
 8296SOL    HW126338   0.544   2.427   4.186  0.0090 -0.5562 -0.4629
 8296SOL    HW226339   0.508   2.534   4.085  1.4813  0.7800  0.3805
 8297SOL     OW26340   0.213   4.753   2.153  0.0466  0.0053 -0.2118
 8297SOL    HW126341   0.145   4.754   2.220 -0.3469  1.1793 -0.5925
 8297SOL    HW226342   0.274   4.821   2.180  0.8738 -0.7715 -0.0863
 8298SOL     OW26343   1.060   3.737   3.637 -0.0996 -0.1406  0.1189
 8298SOL    HW126344   1.038   3.828   3.656 -0.5879 -0.0646 -0.7383
 8298SOL    HW226345   0.993   3.686   3.684 -0.5020 -0.0073 -0.2999
 8299SOL     OW26346   3.645   4.507   7.028 -0.4278  0.7416  0.2229
 8299SOL    HW126347   3.688   4.553   6.956 -0.7020 -0.2838 -0.6133
 8299SOL    HW226348   3.705   4.517   7.102  1.9266 -1.6976 -1.2128
 8300SOL     OW26349   5.041   4.385   2.701 -0.1762 -0.5234 -0.2589
 8300SOL    HW126350   5.098   4.308   2.707 -0.0040 -0.4724 -1.0818
 8300SOL    HW226351   5.100   4.457   2.680 -0.5672 -0.5317 -1.4593
 8301SOL     OW26352   4.046   3.885   0.916  0.2360 -0.1390 -0.2636
 8301SOL    HW126353   4.026   3.805   0.963 -0.2083  0.1507  0.0478
 8301SOL    HW226354   4.130   3.868   0.873 -0.7388 -1.4760 -1.7801
 8302SOL     OW26355   4.839   3.643   5.471 -0.1312  0.2710  0.2092
 8302SOL    HW126356   4.761   3.608   5.428 -1.1496  0.9893  1.3912
 8302SOL    HW226357   4.878   3.567   5.515 -0.6124  0.0491  0.2583
 8303SOL     OW26358   6.507   4.532   5.191  0.4785 -0.5250 -0.0798
 8303SOL    HW126359   6.533   4.466   5.126 -1.2405 -0.1915 -1.1851
 8303SOL    HW226360   6.413   4.541   5.179  0.5265  1.4666  0.6776
 8304SOL     OW26361   0.355   0.974   0.790  0.8597  0.1031  0.2537
 8304SOL    HW126362   0.295   0.902   0.769 -0.2305  1.3101 -0.9494
 8304SOL    HW226363   0.301   1.053   0.785  2.5478  1.2660 -1.0391
 8305SOL     OW26364   1.151   1.226   3.721  0.5968  0.3660  0.1550
 8305SOL    HW126365   1.174   1.222   3.628 -2.0347  1.3947 -0.6475
 8305SOL    HW226366   1.218   1.281   3.761  2.1587 -0.6484 -0.9578
 8306SOL     OW26367   2.847   6.536   5.457  0.0296  0.3286 -0.9245
 8306SOL    HW126368   2.912   6.601   5.432  0.0870 -0.1713 -2.1167
 8306SOL    HW226369   2.763   6.574   5.431 -0.2461  1.1753  1.0270
 8307SOL     OW26370   2.952   3.982   3.981 -0.1531 -0.1909 -0.2777
 8307SOL    HW126371   2.916   3.893   3.981 -0.6456  0.0001  0.3347
 8307SOL    HW226372   2.875   4.039   3.990  0.0698  0.3422 -1.4790
 8308SOL     OW26373   6.694   0.689   5.113 -0.1586  0.5013 -0.1967
 8308SOL    HW126374   6.611   0.643   5.113  0.6891 -1.0832 -0.1610
 8308SOL    HW226375   6.747   0.646   5.180 -0.4074  3.6886  2.2935
 8309SOL     OW26376   5.989   0.329   4.663  0.1877 -0.1396 -0.0588
 8309SOL    HW126377   5.939   0.346   4.743  0.5390  1.9025 -0.2141
 8309SOL    HW226378   6.071   0.289   4.694 -0.1571 -0.4413  0.4846
 8310SOL     OW26379   2.688   2.283   1.420  0.7581 -0.4468  0.5086
 8310SOL    HW126380   2.701   2.270   1.514 -0.6794 -0.0846  0.7691
 8310SOL    HW226381   2.649   2.201   1.390  1.0815 -0.5074  0.2485
 8311SOL     OW26382   6.616   5.647   1.714 -0.1131 -0.3644  0.2503
 8311SOL    HW126383   6.620   5.599   1.631  0.4442 -0.6422  0.4265
 8311SOL    HW226384   6.620   5.579   1.781  0.3962 -0.0973  0.5032
 8312SOL     OW26385   1.679   2.922   3.430 -0.3944 -0.0644 -0.1560
 8312SOL    HW126386   1.652   2.994   3.373 -0.6415 -0.9192 -1.1467
 8312SOL    HW226387   1.600   2.899   3.480 -0.1678  0.7091  0.5798
 8313SOL     OW26388   2.695   2.011   1.165  0.0150  0.3222  0.1896
 8313SOL    HW126389   2.726   1.932   1.120 -3.7806 -1.7221  0.7526
 8313SOL    HW226390   2.639   2.054   1.101 -0.8258  0.5311  1.0414
 8314SOL     OW26391   2.812   5.753   3.721  0.3966 -0.1311  0.0120
 8314SOL    HW126392   2.836   5.670   3.762 -2.0515 -0.0460  1.8540
 8314SOL    HW226393   2.812   5.733   3.627 -1.4982 -2.7505  0.4272
 8315SOL     OW26394   6.052   0.833   4.046 -0.2451 -0.4917  0.1621
 8315SOL    HW126395   6.121   0.893   4.018  0.4466 -0.6991  1.3340
 8315SOL    HW226396   5.980   0.849   3.986  1.3275 -1.3273 -2.0601
 8316SOL     OW26397   5.992   5.942   4.907  0.3456 -0.1517 -0.9577
 8316SOL    HW126398   5.976   5.850   4.927 -2.4330 -0.0190 -2.1140
 8316SOL    HW226399   6.006   5.944   4.813 -1.5230  0.7254 -1.2756
 8317SOL     OW26400   0.118   1.205   4.310  0.3088 -0.0338  0.3321
 8317SOL    HW126401   0.147   1.150   4.382 -0.8909 -2.2507 -0.7302
 8317SOL    HW226402   0.050   1.152   4.267 -0.1655  1.8841 -1.4209
 8318SOL     OW26403   6.824   3.274   0.505  0.1771 -0.0138  0.2766
 8318SOL    HW126404   6.781   3.351   0.541 -1.0783 -1.2440  1.5612
 8318SOL    HW226405   6.873   3.237   0.579 -1.0989 -1.6766  0.3573
 8319SOL     OW26406   2.177   2.848   4.749 -0.2590 -0.5048 -0.2215
 8319SOL    HW126407   2.185   2.760   4.711 -1.3531 -0.6240 -0.2172
 8319SOL    HW226408   2.147   2.833   4.839  1.6763 -0.1953  0.5381
 8320SOL     OW26409   2.843   0.182   1.269  0.0505  0.1929 -0.1892
 8320SOL    HW126410   2.832   0.268   1.228  2.4000  0.2221 -0.8851
 8320SOL    HW226411   2.853   0.202   1.362  1.6388  0.8082 -0.4683
 8321SOL     OW26412   2.695   5.906   6.582 -1.2605  0.3013  0.0003
 8321SOL    HW126413   2.752   5.943   6.650  1.0677  1.8640 -2.5550
 8321SOL    HW226414   2.649   5.982   6.546 -2.1449 -0.4188 -0.4233
 8322SOL     OW26415   3.373   4.344   3.182  0.1951  0.6179  0.0184
 8322SOL    HW126416   3.330   4.259   3.174 -2.0928  1.8339 -2.1596
 8322SOL    HW226417   3.328   4.388   3.253  0.4758  0.5058  0.2682
 8323SOL     OW26418   5.110   1.506   5.379  0.1244  0.2548 -0.2190
 8323SOL    HW126419   5.053   1.486   5.453 -0.0362 -2.2552 -0.9217
 8323SOL    HW226420   5.064   1.471   5.303  1.1469  1.0714 -1.2428
 8324SOL     OW26421   1.137   2.696   0.362  0.2099 -0.2606 -0.3023
 8324SOL    HW126422   1.077   2.730   0.429  0.3119  0.2970 -0.4821
 8324SOL    HW226423   1.107   2.607   0.345 -0.3077 -0.1329 -0.0828
 8325SOL     OW26424   6.367   1.923   2.865  0.0212 -0.0049 -0.1836
 8325SOL    HW126425   6.339   1.938   2.955  0.2038 -0.6812 -0.0087
 8325SOL    HW226426   6.445   1.868   2.872 -0.4829 -0.8209 -0.7757
 8326SOL     OW26427   4.377   0.157   0.865 -0.3875  0.0595  0.2637
 8326SOL    HW126428   4.353   0.238   0.822  1.0560  0.6313  0.4850
 8326SOL    HW226429   4.460   0.176   0.909  0.9996 -2.0343 -1.2260
 8327SOL     OW26430   3.015   0.477   0.577 -1.0011  0.6687 -0.0470
 8327SOL    HW126431   3.066   0.457   0.655 -0.1749  0.1826 -0.7015
 8327SOL    HW226432   2.946   0.536   0.608  0.5536  2.1975  0.6829
 8328SOL     OW26433   1.909   7.016   4.445  0.2772  0.3989  0.7259
 8328SOL    HW126434   1.879   7.056   4.364 -0.8310 -1.2432  0.2727
 8328SOL    HW226435   1.988   6.968   4.421 -0.2005 -0.3111  0.5180
 8329SOL     OW26436   6.977   3.705   7.082  0.4051 -0.0783 -0.5627
 8329SOL    HW126437   7.030   3.727   7.158  0.4638  0.1901 -0.6784
 8329SOL    HW226438   6.928   3.785   7.063  1.5228  0.3793 -1.7304
 8330SOL     OW26439   4.257   3.352   5.851  0.2989  0.4037 -0.0856
 8330SOL    HW126440   4.262   3.420   5.919 -2.1809  0.1008  0.4971
 8330SOL    HW226441   4.313   3.282   5.884  0.1825  0.7936  1.0080
 8331SOL     OW26442   1.740   4.399   6.509 -0.0240 -0.1478  0.5719
 8331SOL    HW126443   1.736   4.461   6.436 -0.7990  0.5748  1.2047
 8331SOL    HW226444   1.804   4.333   6.482  0.2123  0.4915 -0.4577
 8332SOL     OW26445   1.628   3.389   1.906  0.0944 -0.2805 -0.1897
 8332SOL    HW126446   1.563   3.453   1.931 -1.5548 -1.8922 -0.1230
 8332SOL    HW226447   1.661   3.419   1.821 -0.7277  0.5726 -0.2142
 8333SOL     OW26448   4.755   2.104   1.721 -0.1387  0.5914  0.0878
 8333SOL    HW126449   4.800   2.115   1.637 -0.6308  0.0375 -0.2543
 8333SOL    HW226450   4.823   2.121   1.787  0.4567  0.2143 -0.4191
 8334SOL     OW26451   2.730   3.321   0.498 -0.3238 -0.5188 -0.6855
 8334SOL    HW126452   2.736   3.315   0.593  1.7366 -1.1284 -0.7970
 8334SOL    HW226453   2.636   3.315   0.479 -0.7454 -0.7575  1.2724
 8335SOL     OW26454   6.908   2.971   7.076 -0.4259 -0.3271 -0.1835
 8335SOL    HW126455   6.869   3.046   7.120  0.3093  0.3681 -0.6932
 8335SOL    HW226456   6.834   2.916   7.051 -1.0618  0.7976 -0.8480
 8336SOL     OW26457   4.468   4.881   4.445  0.3548 -0.2010  0.3432
 8336SOL    HW126458   4.391   4.864   4.498  1.0162  0.2273  1.4696
 8336SOL    HW226459   4.540   4.841   4.493  0.8295 -0.7915 -0.7985
 8337SOL     OW26460   1.583   5.837   4.967  0.1003 -0.0548 -0.3436
 8337SOL    HW126461   1.488   5.842   4.956  0.2813 -0.2014 -2.2419
 8337SOL    HW226462   1.616   5.919   4.932  0.8916 -1.4884 -3.2151
 8338SOL     OW26463   5.735   2.951   0.878 -0.1444  0.1153 -0.2283
 8338SOL    HW126464   5.689   3.028   0.910 -1.4687 -0.0704 -1.6066
 8338SOL    HW226465   5.667   2.885   0.865  0.5332 -0.3085 -1.9344
 8339SOL     OW26466   2.499   3.346   1.446  1.0806  0.0008 -0.1577
 8339SOL    HW126467   2.499   3.427   1.498  0.4505  0.0722 -0.2616
 8339SOL    HW226468   2.407   3.324   1.437  1.2629 -0.9860  0.2596
 8340SOL     OW26469   3.625   2.029   6.633  0.2443  0.3850 -0.3872
 8340SOL    HW126470   3.664   1.969   6.569  1.1828 -0.2264  0.7246
 8340SOL    HW226471   3.597   2.105   6.581 -1.2512 -1.1043 -1.8766
 8341SOL     OW26472   0.609   3.739   7.132  0.0682  0.4552 -0.5686
 8341SOL    HW126473   0.537   3.800   7.115 -1.0823 -0.5702  0.4343
 8341SOL    HW226474   0.686   3.796   7.145 -0.9461  1.7027  0.2709
 8342SOL     OW26475   4.806   2.570   1.463 -0.3647 -0.3334 -0.3337
 8342SOL    HW126476   4.828   2.477   1.458  1.2680  0.0268 -0.3750
 8342SOL    HW226477   4.792   2.596   1.372 -1.0759 -0.5687 -0.3041
 8343SOL     OW26478   0.482   1.064   4.378 -0.7889 -0.6770 -0.8394
 8343SOL    HW126479   0.444   0.986   4.338 -0.9120 -0.8025 -0.4767
 8343SOL    HW226480   0.519   1.033   4.460 -0.6156 -0.4001 -0.8121
 8344SOL     OW26481   4.820   2.795   0.099  0.0207 -0.1075 -0.6513
 8344SOL    HW126482   4.806   2.782   0.005 -0.2454 -1.5499 -0.4295
 8344SOL    HW226483   4.735   2.777   0.139 -0.3009  2.0819 -0.2404
 8345SOL     OW26484   4.070   5.709   1.392 -0.4461 -0.0688  0.4413
 8345SOL    HW126485   3.996   5.650   1.405 -1.7153  1.7064  1.8454
 8345SOL    HW226486   4.072   5.725   1.297 -2.5700  0.6367  0.4574
 8346SOL     OW26487   3.930   3.974   7.025 -0.5432  0.1683  0.2478
 8346SOL    HW126488   3.889   3.968   7.111  1.3945 -2.3604  1.1332
 8346SOL    HW226489   3.994   4.045   7.033  0.4152 -0.7797  1.3270
 8347SOL     OW26490   6.331   0.371   1.971 -0.3032  0.3780  0.0137
 8347SOL    HW126491   6.384   0.335   2.042 -1.5179 -0.8970  0.3260
 8347SOL    HW226492   6.311   0.296   1.915 -1.5390  0.8610 -0.2355
 8348SOL     OW26493   6.127   3.871   4.670 -0.3160 -0.2387  0.1028
 8348SOL    HW126494   6.125   3.854   4.765 -0.6260  0.5998  0.2579
 8348SOL    HW226495   6.094   3.960   4.662  0.3362 -0.0688 -0.7487
 8349SOL     OW26496   4.889   6.851   0.815 -0.2618 -0.1441  0.2747
 8349SOL    HW126497   4.878   6.826   0.907  2.3398  1.5298  1.1244
 8349SOL    HW226498   4.947   6.784   0.779  0.0898  0.1291  0.3278
 8350SOL     OW26499   0.022   1.532   6.309 -0.0452 -0.3142 -0.2224
 8350SOL    HW126500  -0.070   1.551   6.288  0.3160 -0.5127 -2.1824
 8350SOL    HW226501   0.018   1.484   6.391 -1.8705 -1.9091 -1.1527
 8351SOL     OW26502   2.647   5.023   2.905 -0.4627 -0.2415  0.3245
 8351SOL    HW126503   2.604   4.971   2.971  0.0589  0.3701  1.1672
 8351SOL    HW226504   2.576   5.060   2.852 -0.8932 -0.5284  0.7034
 8352SOL     OW26505   3.041   1.827   5.323  0.3128 -0.4277  0.4404
 8352SOL    HW126506   2.995   1.786   5.250  3.2905 -0.1438 -1.7386
 8352SOL    HW226507   3.125   1.855   5.287  1.0277  1.8004  3.4413
 8353SOL     OW26508   4.314   7.099   0.684  0.0155 -0.3344  0.1174
 8353SOL    HW126509   4.224   7.129   0.672 -0.0909 -0.5410  0.3785
 8353SOL    HW226510   4.356   7.168   0.734 -0.6271 -1.2387  2.0207
 8354SOL     OW26511   6.663   1.416   4.794 -0.0065  0.5614 -0.2729
 8354SOL    HW126512   6.723   1.364   4.741  0.0401 -0.1219  0.4367
 8354SOL    HW226513   6.720   1.468   4.851  0.0431 -2.1674  2.4668
 8355SOL     OW26514   0.174   0.559   1.166  0.5286  0.0415 -0.3375
 8355SOL    HW126515   0.268   0.564   1.149  0.3314 -0.7037 -1.7824
 8355SOL    HW226516   0.146   0.477   1.126 -1.3685  1.9098 -3.3031
 8356SOL     OW26517   1.478   5.739   2.061  0.3092  0.1359  0.0723
 8356SOL    HW126518   1.553   5.793   2.084  0.4216 -0.1269  0.3294
 8356SOL    HW226519   1.457   5.691   2.141 -1.2708  1.5355  0.5698
 8357SOL     OW26520   4.168   6.251   5.766  0.0405 -0.0067 -0.3405
 8357SOL    HW126521   4.130   6.297   5.840 -0.9708 -1.1555 -0.1222
 8357SOL    HW226522   4.183   6.319   5.700  1.7057  1.1761  1.1639
 8358SOL     OW26523   3.724   0.438   3.444  0.8801  0.0232 -0.7007
 8358SOL    HW126524   3.719   0.353   3.488  0.6344  0.8041  0.8105
 8358SOL    HW226525   3.818   0.453   3.433  1.0082  0.4673  0.8665
 8359SOL     OW26526   2.896   1.047   3.511 -0.6355  0.3589  0.6516
 8359SOL    HW126527   2.932   0.958   3.523 -0.8349 -0.1589 -1.9512
 8359SOL    HW226528   2.814   1.033   3.464 -0.7812  1.9350  0.3981
 8360SOL     OW26529   3.768   6.578   4.618 -0.1549  0.0792  0.5443
 8360SOL    HW126530   3.854   6.618   4.609 -1.9472  4.4513  0.1816
 8360SOL    HW226531   3.761   6.555   4.710  0.4943  2.2476  1.1880
 8361SOL     OW26532   3.536   0.473   6.994 -0.2115  0.0678  0.2361
 8361SOL    HW126533   3.502   0.387   6.968 -0.7181  0.7860 -1.6852
 8361SOL    HW226534   3.475   0.504   7.061 -0.7744 -0.5363  0.0135
 8362SOL     OW26535   6.302   3.005   0.002  0.1626 -0.7221  0.4316
 8362SOL    HW126536   6.270   2.981   0.090  1.9870  1.5772  1.8305
 8362SOL    HW226537   6.374   2.944  -0.014 -3.0921 -4.5034 -1.8270
 8363SOL     OW26538   2.060   5.869   0.092  0.2895 -0.1437 -0.1722
 8363SOL    HW126539   2.052   5.777   0.115 -0.7603  0.6379  3.0547
 8363SOL    HW226540   1.973   5.905   0.104  0.5550  1.2407 -1.9000
 8364SOL     OW26541   3.521   4.057   0.206 -0.1348  0.1978 -0.4889
 8364SOL    HW126542   3.568   4.069   0.288 -1.2263  1.0536  0.0402
 8364SOL    HW226543   3.439   4.104   0.218 -0.8799 -0.7375 -1.6015
 8365SOL     OW26544   3.223   4.682   4.244  0.0191  0.4460  0.4492
 8365SOL    HW126545   3.300   4.736   4.257  0.2225  0.2644  0.0353
 8365SOL    HW226546   3.246   4.625   4.170  0.0199 -0.5735  1.2028
 8366SOL     OW26547   6.159   5.650   1.834 -0.0944  0.4995 -0.2407
 8366SOL    HW126548   6.177   5.595   1.758 -2.7725  0.6427 -1.0684
 8366SOL    HW226549   6.165   5.590   1.909 -0.7566 -0.4133 -0.9070
 8367SOL     OW26550   5.868   2.629   4.129 -0.3926 -0.0486 -0.3212
 8367SOL    HW126551   5.959   2.621   4.102  0.9437 -1.7628  3.8429
 8367SOL    HW226552   5.867   2.702   4.191 -1.8619 -0.0660 -0.2756
 8368SOL     OW26553   5.482   2.860   2.750  0.1869 -0.4394  0.7167
 8368SOL    HW126554   5.538   2.897   2.818 -0.4162 -2.2920  2.3258
 8368SOL    HW226555   5.397   2.901   2.765  0.6373  1.0643 -0.6114
 8369SOL     OW26556   5.303   2.208   1.836  0.0777 -0.0344  0.0981
 8369SOL    HW126557   5.209   2.225   1.834  0.4293  2.3024  0.6847
 8369SOL    HW226558   5.330   2.210   1.744 -0.3481 -0.1251 -0.0292
 8370SOL     OW26559   3.274   0.768   2.110  0.3986  0.2511  0.0074
 8370SOL    HW126560   3.255   0.818   2.190 -0.3174 -0.1781  0.1079
 8370SOL    HW226561   3.370   0.769   2.104  0.5893 -1.2533  1.8789
 8371SOL     OW26562   4.549   3.273   3.264  0.1760  0.0505  0.0880
 8371SOL    HW126563   4.514   3.324   3.191  1.0210  1.2299  0.4820
 8371SOL    HW226564   4.484   3.203   3.278 -0.3178  0.1986 -1.3436
 8372SOL     OW26565   1.885   2.334   6.546 -0.2931  0.3699 -0.2298
 8372SOL    HW126566   1.948   2.269   6.514  0.3390  0.2090  1.2550
 8372SOL    HW226567   1.925   2.369   6.626 -1.3898  1.3929 -0.0961
 8373SOL     OW26568   5.333   0.750   1.160  0.0110 -0.5341  0.1351
 8373SOL    HW126569   5.380   0.763   1.078 -0.5160  1.3300  0.0688
 8373SOL    HW226570   5.389   0.691   1.211  0.4035 -1.6302 -1.4871
 8374SOL     OW26571   4.778   1.423   1.180 -0.1619  0.0610 -0.4243
 8374SOL    HW126572   4.803   1.353   1.119 -0.5013  2.2011 -3.2227
 8374SOL    HW226573   4.861   1.459   1.210  0.0478  0.1705 -1.1168
 8375SOL     OW26574   1.285   3.037   1.586  0.1655  0.0029 -0.1879
 8375SOL    HW126575   1.362   3.074   1.628 -0.3208 -0.7463  1.4481
 8375SOL    HW226576   1.304   2.943   1.579 -0.2106 -0.0425 -0.6644
 8376SOL     OW26577   1.478   4.703   1.893  0.1579 -0.1104  0.2289
 8376SOL    HW126578   1.389   4.719   1.925  0.7384 -0.3920  2.0581
 8376SOL    HW226579   1.514   4.790   1.877 -0.0384  0.0555  0.6611
 8377SOL     OW26580   0.774   2.968   2.371  0.5162  0.2355  0.3863
 8377SOL    HW126581   0.778   2.969   2.275  0.6238  1.3114  0.3887
 8377SOL    HW226582   0.811   2.883   2.396 -1.9033 -1.2354 -0.6123
 8378SOL     OW26583   6.856   3.327   2.085  0.1194 -0.0540  0.3867
 8378SOL    HW126584   6.910   3.318   2.006 -1.0171  0.6502 -0.5016
 8378SOL    HW226585   6.772   3.361   2.053  0.4077  2.6120  2.1349
 8379SOL     OW26586   6.665   2.140   7.058 -0.2238 -0.1385  0.5969
 8379SOL    HW126587   6.687   2.048   7.042  1.0631 -0.0049  1.3947
 8379SOL    HW226588   6.598   2.160   6.993  0.2113 -1.3581 -0.2877
 8380SOL     OW26589   2.116   2.562   5.586  0.0652 -0.5581 -0.2686
 8380SOL    HW126590   2.149   2.480   5.622  3.7923  0.8285 -0.0625
 8380SOL    HW226591   2.158   2.568   5.500  1.0713  1.7212  0.3150
 8381SOL     OW26592   5.906   3.142   0.974 -0.0777  0.4043  0.1912
 8381SOL    HW126593   5.836   3.205   0.957 -0.1690  0.7432  1.7178
 8381SOL    HW226594   5.866   3.057   0.961 -0.4997  0.6206  0.0673
 8382SOL     OW26595   1.130   3.717   4.097 -0.2887  0.3610 -0.3229
 8382SOL    HW126596   1.213   3.711   4.144 -1.0393  0.4472  1.0449
 8382SOL    HW226597   1.126   3.809   4.068  0.7741  0.0014 -1.7511
 8383SOL     OW26598   4.017   1.155   2.174 -0.3878  0.3454 -0.2489
 8383SOL    HW126599   4.105   1.183   2.198 -0.0627 -1.1160  0.4236
 8383SOL    HW226600   3.960   1.195   2.240  0.0812 -0.6575  0.8104
 8384SOL     OW26601   1.485   2.316   5.508  0.0459 -0.0886  0.2363
 8384SOL    HW126602   1.500   2.360   5.592 -2.4169  0.7560  0.3382
 8384SOL    HW226603   1.551   2.353   5.449  1.1527  0.0728  1.5300
 8385SOL     OW26604   3.883   1.227   1.942 -0.6079 -0.3698 -0.3086
 8385SOL    HW126605   3.938   1.185   2.008 -2.2636 -0.2752  1.1865
 8385SOL    HW226606   3.872   1.317   1.974 -1.7012 -0.4150 -0.5345
 8386SOL     OW26607   6.010   3.066   0.663 -0.0273 -0.0594 -0.0167
 8386SOL    HW126608   6.017   3.158   0.688 -3.9863  0.5688 -0.6656
 8386SOL    HW226609   6.073   3.056   0.592  1.6913  1.6437  1.1611
 8387SOL     OW26610   1.565   6.730   0.969 -0.4794 -0.0023  0.3001
 8387SOL    HW126611   1.478   6.741   1.007 -0.0548  0.6370  1.1303
 8387SOL    HW226612   1.625   6.760   1.038  0.3306  0.8792 -0.7494
 8388SOL     OW26613   1.001   0.733   6.022 -0.2594 -0.1774  0.8994
 8388SOL    HW126614   1.010   0.799   6.091 -1.6047  1.7053 -0.6018
 8388SOL    HW226615   0.926   0.763   5.970  1.0891 -1.1208 -1.7685
 8389SOL     OW26616   0.958   1.161   5.622  0.5910 -0.4400  0.1712
 8389SOL    HW126617   0.965   1.246   5.666 -0.1026 -0.3445  0.1105
 8389SOL    HW226618   0.876   1.166   5.573  0.6842 -1.0431 -0.0532
 8390SOL     OW26619   0.125   4.860   0.640  0.4308 -0.2262  0.1110
 8390SOL    HW126620   0.211   4.887   0.673  0.6980  0.5937 -1.1621
 8390SOL    HW226621   0.068   4.935   0.657  0.9438  0.8932 -2.5624
 8391SOL     OW26622   0.650   7.108   6.355  0.0717  0.3699  0.3986
 8391SOL    HW126623   0.574   7.051   6.341 -0.3604  0.8376  0.7820
 8391SOL    HW226624   0.709   7.056   6.411 -0.6078  0.5282  1.2940
 8392SOL     OW26625   1.756   3.189   1.301  0.6600 -0.1039  0.6650
 8392SOL    HW126626   1.737   3.262   1.360  0.9801  1.1115 -0.6628
 8392SOL    HW226627   1.677   3.135   1.303 -0.5461  1.5216 -0.0230
 8393SOL     OW26628   1.504   2.227   3.312 -0.3252  0.3458  0.1927
 8393SOL    HW126629   1.542   2.142   3.289  1.2366  1.1599 -0.4116
 8393SOL    HW226630   1.437   2.242   3.246  0.0710  0.0143 -0.2936
 8394SOL     OW26631   4.306   5.464   6.701 -0.2766 -0.3057 -0.2452
 8394SOL    HW126632   4.339   5.554   6.699 -0.2389 -0.3331 -2.0553
 8394SOL    HW226633   4.353   5.424   6.775  0.7373  0.7792 -0.2613
 8395SOL     OW26634   1.157   6.173   0.829  0.0128  0.0382  0.3871
 8395SOL    HW126635   1.107   6.246   0.792  0.0510  0.0069  0.2716
 8395SOL    HW226636   1.114   6.095   0.794  0.8379  0.0236 -0.6549
 8396SOL     OW26637   0.114   1.302   4.765  0.2242  0.2645  0.2635
 8396SOL    HW126638   0.103   1.311   4.670  0.6605  1.6432  0.3207
 8396SOL    HW226639   0.209   1.291   4.777  0.1990  0.3682  0.5613
 8397SOL     OW26640   0.850   0.654   1.633  0.0982 -0.0830  0.5848
 8397SOL    HW126641   0.867   0.714   1.561 -0.5281  0.0385  0.5265
 8397SOL    HW226642   0.930   0.653   1.685  0.0625  0.9229  0.6698
 8398SOL     OW26643   1.873   1.812   5.521  0.0800 -0.1304 -0.8162
 8398SOL    HW126644   1.780   1.794   5.519 -0.1145  0.5663  0.4380
 8398SOL    HW226645   1.889   1.868   5.445 -0.0878 -1.9628 -2.2710
 8399SOL     OW26646   5.387   5.406   3.075  0.3455 -0.1112 -0.1369
 8399SOL    HW126647   5.336   5.487   3.077 -0.9083 -0.8739  0.1850
 8399SOL    HW226648   5.474   5.431   3.106 -0.0204  1.1100 -0.0665
 8400SOL     OW26649   3.941   7.114   3.775  0.3934  0.0039 -0.2925
 8400SOL    HW126650   3.978   7.034   3.736 -0.3729  0.0782 -1.2193
 8400SOL    HW226651   3.912   7.087   3.862  1.7168 -0.2841  0.0890
 8401SOL     OW26652   3.900   2.135   3.963  0.3761  0.4455 -0.3674
 8401SOL    HW126653   3.869   2.044   3.959 -2.3858  1.2447  0.9390
 8401SOL    HW226654   3.909   2.162   3.872 -1.9711 -0.1586 -0.8180
 8402SOL     OW26655   0.550   4.315   0.625 -0.1981  0.2730 -0.3796
 8402SOL    HW126656   0.525   4.388   0.568  0.4199  1.0287  0.2891
 8402SOL    HW226657   0.475   4.256   0.623 -1.6820  2.0261  0.8557
 8403SOL     OW26658   0.921   2.250   2.438 -0.0972 -0.0037 -0.5912
 8403SOL    HW126659   0.826   2.249   2.448  0.0155 -0.5560  0.5084
 8403SOL    HW226660   0.954   2.270   2.525  0.7960  0.1389 -0.9588
 8404SOL     OW26661   1.994   5.832   4.156  0.0861  0.5890  0.0873
 8404SOL    HW126662   1.993   5.817   4.062 -1.8652  2.5157 -0.3069
 8404SOL    HW226663   1.931   5.770   4.191 -0.1931  0.7708 -0.0853
 8405SOL     OW26664   4.179   3.266   5.159 -0.1437 -0.0842  0.7864
 8405SOL    HW126665   4.124   3.191   5.180 -0.7825 -0.1872 -1.0237
 8405SOL    HW226666   4.153   3.290   5.070  2.5832  0.0224 -0.0752
 8406SOL     OW26667   4.212   3.605   1.592  0.2050 -0.3039  0.4227
 8406SOL    HW126668   4.120   3.610   1.565  0.5677 -1.2507 -1.1366
 8406SOL    HW226669   4.208   3.573   1.682 -1.0227  1.4496  1.0672
 8407SOL     OW26670   6.654   1.894   0.744  0.0812  0.4044  0.1630
 8407SOL    HW126671   6.744   1.866   0.731  0.0370  0.5638 -0.5324
 8407SOL    HW226672   6.607   1.816   0.772  0.9684  0.8594  3.3461
 8408SOL     OW26673   6.108   0.221   6.439  0.1589 -0.4906 -0.2449
 8408SOL    HW126674   6.105   0.316   6.433  0.4791 -0.3436  1.3981
 8408SOL    HW226675   6.072   0.201   6.526 -1.9624 -2.0202 -1.3844
 8409SOL     OW26676   2.253   5.381   6.828  0.7019  0.0729 -0.1529
 8409SOL    HW126677   2.345   5.368   6.808  1.0932  1.2076  0.8658
 8409SOL    HW226678   2.230   5.307   6.885  1.2123  0.2841  0.3241
 8410SOL     OW26679   5.198   4.596   5.934 -0.3911  0.5468 -0.2989
 8410SOL    HW126680   5.247   4.545   5.869  1.2609 -0.1394  1.3936
 8410SOL    HW226681   5.264   4.648   5.979 -1.3507  0.4460  1.3323
 8411SOL     OW26682   3.247   5.306   2.451  0.1580 -0.4465  0.9098
 8411SOL    HW126683   3.280   5.282   2.538  1.6573 -0.4366  0.3657
 8411SOL    HW226684   3.266   5.399   2.443  0.9710 -0.6603  0.1865
 8412SOL     OW26685   2.080   2.284   1.117 -0.6794 -0.5221  0.3689
 8412SOL    HW126686   2.138   2.353   1.149  0.9934 -2.2465  1.2024
 8412SOL    HW226687   2.052   2.238   1.196 -1.7331 -0.8705 -0.1835
 8413SOL     OW26688   0.850   4.029   1.531  0.3383  0.4110  0.3105
 8413SOL    HW126689   0.772   3.983   1.564  1.2161 -2.1114 -0.8691
 8413SOL    HW226690   0.831   4.043   1.438  1.2794 -0.2919  0.0006
 8414SOL     OW26691   0.511   6.678   1.436  0.4108 -1.1664  0.1112
 8414SOL    HW126692   0.463   6.641   1.511 -1.4328  0.5225 -0.1397
 8414SOL    HW226693   0.442   6.708   1.376  1.7871  0.7399 -0.6065
 8415SOL     OW26694   5.561   0.282   3.861 -0.3037  0.5444 -0.2043
 8415SOL    HW126695   5.470   0.263   3.882 -0.2013 -0.5488 -0.6745
 8415SOL    HW226696   5.611   0.239   3.931 -0.1292  0.4366 -0.3929
 8416SOL     OW26697   5.059   3.085   3.289 -0.0969 -0.2471 -0.1929
 8416SOL    HW126698   5.048   3.111   3.381  2.4786 -1.2283  0.4685
 8416SOL    HW226699   4.994   3.015   3.277  0.0574 -0.6461  1.1178
 8417SOL     OW26700   7.097   0.898   4.698 -0.4369 -0.2779 -0.1506
 8417SOL    HW126701   7.058   0.853   4.624 -0.7735 -0.2118 -0.0122
 8417SOL    HW226702   7.029   0.900   4.765 -1.2214  2.4029 -0.9158
 8418SOL     OW26703   1.238   4.626   4.140 -1.0492 -0.0110 -0.2109
 8418SOL    HW126704   1.172   4.666   4.083 -1.0370 -0.9040 -0.8810
 8418SOL    HW226705   1.286   4.700   4.176 -1.2060  0.5898 -1.1887
 8419SOL     OW26706   3.197   6.987   2.146 -0.4393  0.0636  0.1744
 8419SOL    HW126707   3.184   7.082   2.140  0.2067  0.0996 -0.7456
 8419SOL    HW226708   3.291   6.976   2.163 -0.2376 -0.4442 -1.1561
 8420SOL     OW26709   5.036   2.532   4.434 -0.5135 -0.0453 -0.1728
 8420SOL    HW126710   5.068   2.562   4.349  2.4369  1.9962  1.5078
 8420SOL    HW226711   5.084   2.451   4.450  1.8593  1.4885  1.0440
 8421SOL     OW26712   3.139   5.164   2.079  0.1027  0.0242  0.3354
 8421SOL    HW126713   3.153   5.255   2.106  0.1098 -0.6101  2.6475
 8421SOL    HW226714   3.142   5.114   2.161 -1.0250 -1.9307 -0.7609
 8422SOL     OW26715   7.134   4.930   0.982  0.2420 -0.0904 -0.3672
 8422SOL    HW126716   7.083   4.902   0.906 -0.5614 -0.1169  0.1762
 8422SOL    HW226717   7.188   4.854   1.003  0.2782 -0.1737 -0.7517
 8423SOL     OW26718   5.116   6.378   4.368 -0.3176 -0.1259  0.1544
 8423SOL    HW126719   5.155   6.342   4.289  0.2865 -0.6779  0.6923
 8423SOL    HW226720   5.143   6.318   4.438  0.2188  1.0329  0.9735
 8424SOL     OW26721   0.602   6.121   3.786 -0.2571 -0.0106  0.9325
 8424SOL    HW126722   0.572   6.200   3.742  1.6802 -0.4616 -1.4857
 8424SOL    HW226723   0.523   6.071   3.803 -1.2261 -0.2133 -3.1367
 8425SOL     OW26724   3.970   4.924   5.961  0.2746 -1.1090  0.1837
 8425SOL    HW126725   4.029   4.851   5.979  1.6398  0.4378  2.5781
 8425SOL    HW226726   4.026   4.990   5.921 -0.7267 -1.0073 -1.0818
 8426SOL     OW26727   6.108   2.180   3.100 -0.3879 -0.5689 -0.4913
 8426SOL    HW126728   6.105   2.234   3.179 -4.1813 -0.5987 -0.4351
 8426SOL    HW226729   6.117   2.243   3.028  1.0952 -0.4043 -0.1994
 8427SOL     OW26730   3.149   3.392   5.909 -0.0523 -0.2581 -0.5241
 8427SOL    HW126731   3.232   3.345   5.914 -0.0239 -0.2236 -0.6610
 8427SOL    HW226732   3.136   3.407   5.815  1.3178  2.4340 -0.3813
 8428SOL     OW26733   1.564   5.721   2.484  0.3021  0.1064 -0.4798
 8428SOL    HW126734   1.633   5.710   2.549  1.1862 -0.2916 -1.4456
 8428SOL    HW226735   1.483   5.718   2.534  0.8517 -2.1982  0.4254
 8429SOL     OW26736   4.872   3.904   6.388 -0.1446 -0.1088  0.1129
 8429SOL    HW126737   4.795   3.960   6.375 -1.5000 -2.0228 -0.5245
 8429SOL    HW226738   4.903   3.925   6.476 -0.4100  1.8198 -0.2033
 8430SOL     OW26739   3.543   0.098   6.434  0.6748  0.0454  0.7137
 8430SOL    HW126740   3.452   0.107   6.405  1.9691  0.9104 -3.8576
 8430SOL    HW226741   3.571   0.188   6.452  1.3750  0.2106 -0.9909
 8431SOL     OW26742   2.235   1.460   5.109  0.1795  0.3321  0.4888
 8431SOL    HW126743   2.261   1.409   5.186 -1.0866  1.2086  1.5485
 8431SOL    HW226744   2.281   1.543   5.119  0.2875  0.3140  0.1211
 8432SOL     OW26745   4.553   6.441   2.278 -0.1934  0.2185 -0.3559
 8432SOL    HW126746   4.563   6.536   2.275 -0.6496  0.2396 -1.5684
 8432SOL    HW226747   4.520   6.417   2.192  1.5946 -1.2546 -0.6856
 8433SOL     OW26748   5.719   4.058   2.656 -0.4772  0.1252  0.3940
 8433SOL    HW126749   5.716   4.012   2.572 -1.2185  0.0267  0.4629
 8433SOL    HW226750   5.811   4.080   2.668  0.0824 -2.2217  0.8517
 8434SOL     OW26751   5.057   5.905   2.829 -0.2593  0.3262  0.1537
 8434SOL    HW126752   5.097   5.907   2.742  1.6933 -0.3514  0.9645
 8434SOL    HW226753   5.131   5.893   2.888 -1.5571  0.6349  1.9095
 8435SOL     OW26754   3.958   4.465   3.136  0.5307 -0.5298  0.1469
 8435SOL    HW126755   3.971   4.526   3.208 -1.4663  0.8848 -0.6083
 8435SOL    HW226756   3.908   4.393   3.174 -0.4911  0.1963  0.2155
 8436SOL     OW26757   3.326   5.714   3.520 -0.1325  0.0979  0.6173
 8436SOL    HW126758   3.252   5.771   3.539 -0.8880 -0.7324  0.2588
 8436SOL    HW226759   3.360   5.688   3.606 -0.1955  0.5566  0.7816
 8437SOL     OW26760   5.173   0.778   4.505 -0.0099 -0.3683  0.4702
 8437SOL    HW126761   5.111   0.746   4.440  0.5079  1.3776 -0.9870
 8437SOL    HW226762   5.126   0.845   4.553  0.3527  0.1355  0.1445
 8438SOL     OW26763   6.420   5.744   6.601  0.1618  0.6343  0.1667
 8438SOL    HW126764   6.493   5.794   6.638 -0.1995  0.6489  0.8694
 8438SOL    HW226765   6.373   5.710   6.676 -0.1188 -0.0224 -0.2987
 8439SOL     OW26766   0.168   3.279   0.993  0.7017 -0.6763  0.6564
 8439SOL    HW126767   0.163   3.187   1.019  1.9958 -0.3214  2.3425
 8439SOL    HW226768   0.198   3.278   0.902 -1.9153 -1.9431 -0.2732
 8440SOL     OW26769   4.682   4.827   6.246 -0.6112 -0.1020  0.5101
 8440SOL    HW126770   4.763   4.836   6.196 -0.9648  2.0565  0.2308
 8440SOL    HW226771   4.711   4.813   6.337  0.0640 -0.1922  0.2875
 8441SOL     OW26772   0.493   5.143   1.237  0.5703  0.0364 -0.0993
 8441SOL    HW126773   0.431   5.213   1.256 -0.6042 -1.0952  0.3619
 8441SOL    HW226774   0.512   5.104   1.322 -0.8890 -1.9007 -0.5865
 8442SOL     OW26775   6.615   6.219   6.460 -0.2912  0.0143 -0.4490
 8442SOL    HW126776   6.698   6.266   6.456  0.3648 -1.1758 -1.9326
 8442SOL    HW226777   6.564   6.256   6.388 -0.7768  0.2419  0.0082
 8443SOL     OW26778   2.037   0.923   0.854 -0.1517 -0.3415  0.3445
 8443SOL    HW126779   1.976   0.994   0.874 -0.8306 -0.7934 -0.1048
 8443SOL    HW226780   2.094   0.959   0.785 -1.2589 -0.6229 -0.7534
 8444SOL     OW26781   2.957   2.463   1.626 -0.2819  0.2428  0.1691
 8444SOL    HW126782   3.052   2.462   1.642 -0.0046 -1.1169 -1.2283
 8444SOL    HW226783   2.949   2.486   1.534 -1.3417  0.6804  0.3622
 8445SOL     OW26784   1.826   5.845   5.989  0.4481 -0.5285  0.1984
 8445SOL    HW126785   1.921   5.850   5.991  0.4282  0.0648  2.2996
 8445SOL    HW226786   1.803   5.788   6.062 -0.8470  1.1633  1.2074
 8446SOL     OW26787   0.949   0.728   6.819  0.4541 -0.1639 -0.3687
 8446SOL    HW126788   0.920   0.810   6.779 -0.4331  0.1703  0.9013
 8446SOL    HW226789   0.974   0.752   6.908  0.4794 -1.2247 -0.0733
 8447SOL     OW26790   0.569   0.722   2.916  0.0730 -0.2139 -0.4812
 8447SOL    HW126791   0.633   0.784   2.882 -1.0234  1.1235 -0.1929
 8447SOL    HW226792   0.600   0.700   3.004 -0.6868  1.7425  0.3341
 8448SOL     OW26793   6.314   6.288   1.199  0.0412 -0.6630  0.1212
 8448SOL    HW126794   6.237   6.276   1.254  0.0944  1.6013  0.7917
 8448SOL    HW226795   6.388   6.282   1.260  0.1463  0.9855  0.2017
 8449SOL     OW26796   2.457   3.276   3.287  0.3305 -0.0041  0.6216
 8449SOL    HW126797   2.370   3.240   3.269  1.2367 -2.0043  0.0771
 8449SOL    HW226798   2.444   3.333   3.363 -1.5864  0.3754  0.0687
 8450SOL     OW26799   4.014   5.470   3.752 -0.3876  0.0207  0.4637
 8450SOL    HW126800   3.981   5.507   3.834 -1.1074  0.7162 -0.1180
 8450SOL    HW226801   4.076   5.535   3.719 -0.7112  0.1317  0.0601
 8451SOL     OW26802   3.479   0.508   0.289  0.0411  0.4074 -0.1202
 8451SOL    HW126803   3.553   0.483   0.232 -1.0002  0.2117 -1.4412
 8451SOL    HW226804   3.506   0.480   0.376  2.2243  1.8458 -0.2659
 8452SOL     OW26805   1.175   3.443   3.649  0.5040 -0.0645 -0.3460
 8452SOL    HW126806   1.215   3.499   3.716  0.3880  1.2142 -1.2986
 8452SOL    HW226807   1.118   3.502   3.600  0.7248 -0.9153 -1.6836
 8453SOL     OW26808   4.484   5.896   1.446 -0.0266 -0.0552 -0.0237
 8453SOL    HW126809   4.401   5.849   1.445  0.9255 -1.8419  0.2347
 8453SOL    HW226810   4.544   5.838   1.492  1.9077  0.2011 -2.0354
 8454SOL     OW26811   6.906   3.512   2.305 -0.3248 -0.4576  0.3192
 8454SOL    HW126812   6.862   3.448   2.250 -1.6169 -0.1987  1.0028
 8454SOL    HW226813   6.910   3.471   2.391 -1.8208  0.5999  0.9429
 8455SOL     OW26814   1.449   6.948   0.453  0.2781  0.1790 -0.3189
 8455SOL    HW126815   1.370   6.981   0.410  0.9567  1.1923 -0.8487
 8455SOL    HW226816   1.519   7.007   0.423  1.2042 -0.5767  0.2771
 8456SOL     OW26817   5.171   3.182   5.118  0.3696  0.5161  0.0366
 8456SOL    HW126818   5.260   3.187   5.082  0.4313  1.4614  0.2912
 8456SOL    HW226819   5.173   3.240   5.194  0.1302 -1.1201  1.3636
 8457SOL     OW26820   2.879   6.244   6.922 -0.0594 -0.6357  0.3452
 8457SOL    HW126821   2.923   6.171   6.880 -0.9784 -1.5161  0.8739
 8457SOL    HW226822   2.810   6.270   6.861  1.3488  0.9578 -0.6316
 8458SOL     OW26823   2.919   5.509   2.347  0.2332  0.7839 -0.4335
 8458SOL    HW126824   2.997   5.529   2.399 -1.8201 -0.9239  3.6915
 8458SOL    HW226825   2.929   5.416   2.324 -0.4338  0.6343 -0.1340
 8459SOL     OW26826   2.231   1.676   5.950 -0.1737  0.1512 -0.1487
 8459SOL    HW126827   2.157   1.617   5.932 -2.3424  3.1589 -1.9925
 8459SOL    HW226828   2.286   1.667   5.872  1.0717 -1.4667  0.8576
 8460SOL     OW26829   3.684   4.866   1.473  0.1594 -0.3834  0.0801
 8460SOL    HW126830   3.662   4.951   1.435 -0.4879 -0.3514  0.5009
 8460SOL    HW226831   3.599   4.824   1.488  0.4671 -1.0587 -0.0254
 8461SOL     OW26832   3.676   3.789   2.401  0.3284 -0.9585 -0.2114
 8461SOL    HW126833   3.726   3.813   2.479 -0.0635 -2.3900  0.5140
 8461SOL    HW226834   3.678   3.694   2.400 -2.1152 -1.0623 -0.3313
 8462SOL     OW26835   2.800   2.688   5.401  0.0510  0.5127 -0.2441
 8462SOL    HW126836   2.723   2.646   5.361 -1.3975  2.3888  0.4267
 8462SOL    HW226837   2.841   2.618   5.452 -0.8776 -0.6918 -1.0796
 8463SOL     OW26838   7.072   6.164   5.877  0.1659 -0.2428 -0.4316
 8463SOL    HW126839   7.009   6.094   5.896  1.0194 -0.7721  0.5507
 8463SOL    HW226840   7.064   6.224   5.951  2.0102 -1.2253  0.6699
 8464SOL     OW26841   0.613   0.670   3.190  0.1241 -0.2388 -0.0692
 8464SOL    HW126842   0.707   0.685   3.200  0.4002 -1.2724 -0.8646
 8464SOL    HW226843   0.572   0.751   3.219  1.2554  0.1845  0.4079
 8465SOL     OW26844   2.833   3.843   0.288 -0.0460  0.0825 -0.2291
 8465SOL    HW126845   2.801   3.912   0.229  0.2957 -0.8264 -1.5153
 8465SOL    HW226846   2.884   3.890   0.353 -2.4931  1.4014  0.9032
 8466SOL     OW26847   5.597   1.903   0.095  0.2727 -0.0604 -0.4136
 8466SOL    HW126848   5.611   1.859   0.179 -1.7492  0.4917  0.2850
 8466SOL    HW226849   5.635   1.990   0.106  2.3948 -0.8436 -1.0607
 8467SOL     OW26850   2.103   5.631   1.041  0.0233 -0.3596 -0.3937
 8467SOL    HW126851   2.171   5.599   1.101 -0.7280 -0.6171  0.3337
 8467SOL    HW226852   2.110   5.727   1.046  1.3021 -0.3656 -1.4598
 8468SOL     OW26853   2.436   5.792   4.007 -0.0024 -0.1592  0.2875
 8468SOL    HW126854   2.477   5.788   3.921  0.2621 -2.0901  0.4411
 8468SOL    HW226855   2.359   5.848   3.995  0.6864  0.5700 -0.8977
 8469SOL     OW26856   5.411   0.953   4.399 -0.4772 -0.6599  0.1041
 8469SOL    HW126857   5.342   1.015   4.423  0.4161  0.4311 -0.0783
 8469SOL    HW226858   5.376   0.867   4.423 -2.4049 -0.2703 -1.1242
 8470SOL     OW26859   0.120   6.542   6.555  0.0766 -0.2385  0.5219
 8470SOL    HW126860   0.208   6.504   6.552  0.1371 -0.1867  1.5518
 8470SOL    HW226861   0.087   6.531   6.466  1.1386 -0.2290  0.1084
 8471SOL     OW26862   5.772   2.545   6.491  0.5264 -0.0125 -0.1738
 8471SOL    HW126863   5.839   2.587   6.437  0.1400  1.4701  0.4449
 8471SOL    HW226864   5.692   2.593   6.471 -0.5569 -2.2330 -1.4347
 8472SOL     OW26865   1.986   5.986   1.337 -0.0210 -0.6084 -0.1612
 8472SOL    HW126866   1.926   5.935   1.282 -1.4850  1.2611 -0.4115
 8472SOL    HW226867   1.990   6.072   1.294 -1.4061  1.0066  2.6786
 8473SOL     OW26868   5.707   5.716   6.590 -0.1103 -0.1318 -0.0017
 8473SOL    HW126869   5.667   5.631   6.606  1.8295 -1.0707  0.1944
 8473SOL    HW226870   5.790   5.713   6.638 -1.0822  2.8537  2.1512
 8474SOL     OW26871   5.066   0.944   5.887  0.6423  0.2321  0.0827
 8474SOL    HW126872   5.034   0.899   5.964  3.9751 -0.2564  1.3486
 8474SOL    HW226873   5.049   1.037   5.904 -0.8865 -0.0427  0.1829
 8475SOL     OW26874   4.636   2.044   2.262 -0.1397 -0.0455  0.1329
 8475SOL    HW126875   4.609   1.960   2.224  2.6263 -1.3537  0.8135
 8475SOL    HW226876   4.708   2.073   2.206 -0.3504  1.3613  0.5608
 8476SOL     OW26877   2.489   0.858   2.209  0.2475  0.8468 -0.1484
 8476SOL    HW126878   2.398   0.854   2.238 -0.6476 -0.8456 -2.8555
 8476SOL    HW226879   2.511   0.768   2.186  2.7769  1.1539  0.7640
 8477SOL     OW26880   0.539   0.917   5.801 -0.7436 -0.1817  0.5868
 8477SOL    HW126881   0.512   1.008   5.814 -0.3097  0.1667 -0.7618
 8477SOL    HW226882   0.456   0.868   5.800 -0.9419  0.1058  1.8770
 8478SOL     OW26883   5.215   5.146   7.096 -0.0840  0.1467 -0.2429
 8478SOL    HW126884   5.235   5.210   7.028  0.3956  0.0373 -0.2117
 8478SOL    HW226885   5.127   5.167   7.125  0.0297  0.7190 -0.3164
 8479SOL     OW26886   4.960   1.800   6.194  0.3262  0.0312  0.5388
 8479SOL    HW126887   4.930   1.711   6.211  0.4462  0.1812  1.6144
 8479SOL    HW226888   4.991   1.831   6.279 -1.0301  1.6028  0.4916
 8480SOL     OW26889   3.743   3.526   2.356  0.2885  0.1958 -0.0306
 8480SOL    HW126890   3.813   3.562   2.303  1.8035  0.0848  1.7965
 8480SOL    HW226891   3.778   3.525   2.446  0.0320 -4.7034  0.2885
 8481SOL     OW26892   0.342   0.405   3.710 -0.1193  0.6040 -0.3307
 8481SOL    HW126893   0.257   0.360   3.715  0.6664 -0.9286 -0.2768
 8481SOL    HW226894   0.326   0.480   3.653 -1.3432 -0.0359 -0.8652
 8482SOL     OW26895   2.510   2.643   1.099  0.2655  0.4949 -0.5836
 8482SOL    HW126896   2.539   2.592   1.174 -1.7290  1.3655  0.8547
 8482SOL    HW226897   2.446   2.587   1.055 -0.9340  1.1884  0.2322
 8483SOL     OW26898   5.061   4.965   4.359  0.3296  0.3016  0.1635
 8483SOL    HW126899   5.133   4.908   4.333 -1.0245 -1.5495  0.2418
 8483SOL    HW226900   4.992   4.947   4.296 -0.2550  1.7009  0.3490
 8484SOL     OW26901   4.441   3.105   6.665  0.5976 -0.5182 -0.0744
 8484SOL    HW126902   4.524   3.061   6.685  1.4780  1.9935  2.4119
 8484SOL    HW226903   4.433   3.173   6.732 -2.1255  1.1665 -1.9134
 8485SOL     OW26904   6.309   5.296   5.277  0.1715 -0.4527  0.8175
 8485SOL    HW126905   6.258   5.375   5.260  0.1990 -0.6129 -0.0754
 8485SOL    HW226906   6.304   5.284   5.372  0.3253  0.7215  0.9832
 8486SOL     OW26907   4.587   0.457   6.047 -0.5743 -0.3745  0.0696
 8486SOL    HW126908   4.600   0.455   6.142 -0.3542 -0.7456  0.0355
 8486SOL    HW226909   4.560   0.367   6.025  0.3449 -0.5601 -0.3516
 8487SOL     OW26910   2.380   0.868   5.290  0.1172  0.3258 -0.3886
 8487SOL    HW126911   2.435   0.848   5.214 -0.3839 -1.8326 -0.2286
 8487SOL    HW226912   2.293   0.837   5.266 -0.6555  1.9540  0.1166
 8488SOL     OW26913   3.947   3.291   1.337  0.2430 -0.1061  0.1260
 8488SOL    HW126914   3.855   3.295   1.310  0.3476  0.5121 -0.1569
 8488SOL    HW226915   3.988   3.232   1.275  0.6359  1.8616 -1.5948
 8489SOL     OW26916   3.424   4.697   7.082  0.2246 -0.4967  0.2310
 8489SOL    HW126917   3.347   4.643   7.100 -0.0460 -0.2980 -0.3032
 8489SOL    HW226918   3.497   4.635   7.084  0.0234 -0.7292  0.4974
 8490SOL     OW26919   3.029   5.444   6.460  1.0511  0.2959  0.4551
 8490SOL    HW126920   3.120   5.470   6.454  1.5759 -1.1192  1.6289
 8490SOL    HW226921   3.023   5.392   6.540 -0.0358 -2.3666 -1.1752
 8491SOL     OW26922   5.474   5.118   7.140 -0.0354  0.0396  0.4976
 8491SOL    HW126923   5.516   5.136   7.056 -2.3473 -0.1384 -0.7926
 8491SOL    HW226924   5.380   5.131   7.123 -0.7373 -1.6942  2.6012
 8492SOL     OW26925   2.277   4.075   5.880  0.2772  0.0327 -0.0247
 8492SOL    HW126926   2.257   3.982   5.874 -1.4695  0.3340  0.5173
 8492SOL    HW226927   2.321   4.096   5.797 -3.9577 -0.2560 -2.6363
 8493SOL     OW26928   6.844   0.637   6.139  0.1030 -0.3442 -0.2480
 8493SOL    HW126929   6.762   0.675   6.107 -0.8593 -0.6111  1.7288
 8493SOL    HW226930   6.881   0.704   6.197  1.5723 -0.0234 -1.5082
 8494SOL     OW26931   3.565   3.685   1.572  0.6484  0.1087  0.1366
 8494SOL    HW126932   3.600   3.703   1.659 -2.8548  0.2863  1.6486
 8494SOL    HW226933   3.525   3.767   1.544 -1.4152 -0.8620  0.0319
 8495SOL     OW26934   2.267   5.569   1.910 -0.5961 -0.4113  0.3455
 8495SOL    HW126935   2.262   5.634   1.840  0.2653  0.5071  1.1094
 8495SOL    HW226936   2.360   5.566   1.934 -0.4975 -2.4743 -0.1655
 8496SOL     OW26937   3.322   3.586   1.821  0.2517  0.3719 -0.2061
 8496SOL    HW126938   3.228   3.599   1.807  0.3015  1.6908  0.4860
 8496SOL    HW226939   3.347   3.520   1.757 -1.5222 -1.5184  0.9428
 8497SOL     OW26940   6.640   4.584   1.649  0.0615  0.0876 -0.3758
 8497SOL    HW126941   6.665   4.652   1.586  2.1730 -0.5847 -0.3316
 8497SOL    HW226942   6.593   4.519   1.596  2.4949 -0.8703 -1.5282
 8498SOL     OW26943   4.708   6.232   1.237 -0.0725 -0.4041 -0.3328
 8498SOL    HW126944   4.658   6.247   1.317  0.0997 -1.2276 -0.0584
 8498SOL    HW226945   4.708   6.137   1.227 -0.6420 -0.2840 -1.6662
 8499SOL     OW26946   4.009   5.838   3.612 -0.3166  0.4375 -0.1364
 8499SOL    HW126947   4.045   5.904   3.553 -0.3445 -0.9673 -1.7991
 8499SOL    HW226948   4.005   5.758   3.559  1.1990 -1.3297  2.2098
 8500SOL     OW26949   0.658   4.925   0.929  0.2483  0.3108  0.2440
 8500SOL    HW126950   0.704   4.856   0.880 -1.3620 -0.9432  0.4233
 8500SOL    HW226951   0.679   4.908   1.021  0.8906  0.8815  0.2164
 8501SOL     OW26952   3.627   4.644   1.698 -0.3271  0.3490  0.6210
 8501SOL    HW126953   3.591   4.718   1.746  1.5536  1.8724 -0.1901
 8501SOL    HW226954   3.604   4.568   1.752 -0.7558  1.6915  2.4387
 8502SOL     OW26955   0.854   5.552   5.583  0.3137 -0.1132  0.4634
 8502SOL    HW126956   0.795   5.521   5.515  1.8995 -1.6193 -0.3041
 8502SOL    HW226957   0.800   5.558   5.662 -0.8540 -1.4416 -0.1967
 8503SOL     OW26958   3.080   5.108   6.479  0.6564 -0.0547 -0.1083
 8503SOL    HW126959   3.050   5.127   6.568  0.9944  0.7552 -0.1589
 8503SOL    HW226960   3.089   5.012   6.476  0.3909 -0.1057  0.6447
 8504SOL     OW26961   2.422   1.846   1.291 -0.5060  0.0258 -0.9899
 8504SOL    HW126962   2.506   1.804   1.310 -0.9547  0.0760  1.4500
 8504SOL    HW226963   2.386   1.796   1.218  0.9818 -0.9342 -1.1026
 8505SOL     OW26964   5.905   2.015   5.469  0.1297  0.5153 -0.1843
 8505SOL    HW126965   5.924   1.925   5.442  1.4902  0.0092  2.1872
 8505SOL    HW226966   5.841   2.046   5.405  0.1896 -1.8657 -1.5194
 8506SOL     OW26967   4.471   1.676   3.185  0.0024 -0.0570  0.4627
 8506SOL    HW126968   4.442   1.707   3.270 -1.8893  1.6528 -0.7230
 8506SOL    HW226969   4.458   1.581   3.189  1.5414 -0.2496  2.5901
 8507SOL     OW26970   1.880   2.580   1.181 -0.1927 -0.2413 -0.2835
 8507SOL    HW126971   1.886   2.592   1.276 -3.4593  1.8890 -0.1844
 8507SOL    HW226972   1.821   2.505   1.171 -0.9633  0.4001 -0.5893
 8508SOL     OW26973   0.407   3.523   6.666 -0.1226  0.0403 -0.1530
 8508SOL    HW126974   0.404   3.557   6.755  2.3152  0.2684 -0.0889
 8508SOL    HW226975   0.408   3.428   6.677 -1.1935  0.0281 -0.0394
 8509SOL     OW26976   2.931   3.546   3.461  0.8406  0.3033 -0.4451
 8509SOL    HW126977   2.918   3.481   3.392 -2.7125  0.0304  0.2742
 8509SOL    HW226978   2.942   3.629   3.414 -0.2600 -0.0558 -1.3770
 8510SOL     OW26979   1.717   1.730   4.277 -1.0694 -0.8702 -0.4830
 8510SOL    HW126980   1.646   1.793   4.266 -0.3816  0.0140  0.1137
 8510SOL    HW226981   1.741   1.706   4.187 -1.7978 -0.8144 -0.6974
 8511SOL     OW26982   4.564   6.828   0.732  0.3406  0.1926  0.2257
 8511SOL    HW126983   4.613   6.850   0.812 -0.0801  0.5721  0.3810
 8511SOL    HW226984   4.472   6.831   0.759  0.2379 -1.3999  0.1633
 8512SOL     OW26985   6.897   1.478   1.618  0.4365  0.9770  0.4584
 8512SOL    HW126986   6.827   1.484   1.553  0.5642  2.2150  0.3950
 8512SOL    HW226987   6.930   1.568   1.625  0.0446  0.9972  2.6721
 8513SOL     OW26988   6.274   1.967   1.473  0.0186  0.4035 -0.1678
 8513SOL    HW126989   6.223   1.934   1.399  0.0577 -2.8397  1.1090
 8513SOL    HW226990   6.362   1.932   1.459  0.0505 -0.1780  1.3049
 8514SOL     OW26991   1.515   0.301   2.089 -0.1987  0.0268  0.2290
 8514SOL    HW126992   1.420   0.314   2.089 -0.4995 -1.6299 -1.4533
 8514SOL    HW226993   1.540   0.308   2.181 -2.0553 -0.0783  0.7938
 8515SOL     OW26994   0.970   5.039   4.084  0.1326  0.1895  0.4588
 8515SOL    HW126995   1.028   5.064   4.012 -0.7824 -0.2779 -0.4511
 8515SOL    HW226996   1.003   5.089   4.159  1.3088  0.4223 -0.1910
 8516SOL     OW26997   5.731   6.103   6.160  0.0596 -0.2794  0.0439
 8516SOL    HW126998   5.688   6.097   6.074  0.8445 -0.7619 -0.3330
 8516SOL    HW226999   5.678   6.049   6.217 -0.3191 -0.1761 -0.2043
 8517SOL     OW27000   2.640   1.802   6.204  1.1375  0.4752 -0.5131
 8517SOL    HW127001   2.711   1.763   6.256  2.0760  2.4128 -0.2758
 8517SOL    HW227002   2.685   1.849   6.134  0.0045  0.6929 -1.1114
 8518SOL     OW27003   3.225   4.544   0.026 -0.1241 -0.1857 -0.0855
 8518SOL    HW127004   3.142   4.580   0.056 -0.2714 -1.1642  0.7160
 8518SOL    HW227005   3.204   4.457  -0.008  0.4518 -0.1217 -0.6354
 8519SOL     OW27006   1.077   3.124   3.468  0.3259  0.3436 -1.1020
 8519SOL    HW127007   1.063   3.132   3.562 -2.1596 -0.3784 -1.3437
 8519SOL    HW227008   1.156   3.069   3.461 -0.6729 -1.4518  0.6125
 8520SOL     OW27009   4.876   3.403   1.884 -0.3027 -0.4735  0.0068
 8520SOL    HW127010   4.969   3.419   1.895 -0.3849  0.4129 -0.5107
 8520SOL    HW227011   4.868   3.308   1.875  0.3335 -0.7451  1.9663
 8521SOL     OW27012   0.209   5.152   2.491  0.3607  0.3469 -0.1221
 8521SOL    HW127013   0.285   5.167   2.548  0.4505 -1.0802  0.1659
 8521SOL    HW227014   0.247   5.118   2.410  0.0778  0.3118 -0.2392
 8522SOL     OW27015   3.560   5.234   4.175  0.3079 -0.2262  0.8917
 8522SOL    HW127016   3.558   5.145   4.139  0.2784  0.3343 -0.5918
 8522SOL    HW227017   3.475   5.244   4.218 -0.3321 -0.4240 -0.2736
 8523SOL     OW27018   6.788   4.780   4.639 -0.0888  0.2457 -0.0007
 8523SOL    HW127019   6.769   4.686   4.649  0.5042  0.2032  0.8148
 8523SOL    HW227020   6.863   4.783   4.580 -1.8568  0.3714 -2.4272
 8524SOL     OW27021   3.014   6.527   1.039  0.1396  0.0479  0.7226
 8524SOL    HW127022   3.061   6.587   0.981 -0.8094  1.1063  1.0099
 8524SOL    HW227023   3.079   6.463   1.065  0.4979 -0.7814 -1.9060
 8525SOL     OW27024   2.641   4.188   2.819  0.5753 -0.3986 -0.0962
 8525SOL    HW127025   2.633   4.131   2.895  3.3919 -1.0191 -0.1663
 8525SOL    HW227026   2.566   4.248   2.826  0.4977 -0.6925  2.9334
 8526SOL     OW27027   5.909   6.871   6.808 -0.0657  0.1803 -0.0486
 8526SOL    HW127028   5.937   6.814   6.880 -2.2878 -1.0498 -0.0622
 8526SOL    HW227029   5.963   6.843   6.734  0.9353  0.1578  0.6726
 8527SOL     OW27030   5.517   6.144   1.857 -0.2723  0.5837 -0.4949
 8527SOL    HW127031   5.565   6.174   1.934 -0.5257  1.3688 -0.6327
 8527SOL    HW227032   5.443   6.095   1.893  0.4545 -0.3849 -0.2799
 8528SOL     OW27033   5.719   4.188   4.553  0.1479 -0.2693  0.1568
 8528SOL    HW127034   5.635   4.152   4.523  0.8190 -0.3728 -1.7254
 8528SOL    HW227035   5.694   4.267   4.602 -1.0302  0.3234 -1.2995
 8529SOL     OW27036   3.924   2.369   0.994  0.4354 -0.2733  0.1728
 8529SOL    HW127037   3.847   2.410   1.032  1.0828  1.0702  0.0960
 8529SOL    HW227038   3.931   2.406   0.906  0.3467 -1.4976 -0.3787
 8530SOL     OW27039   5.857   0.361   6.253 -0.8218 -0.0189  0.3700
 8530SOL    HW127040   5.910   0.406   6.319 -1.8377  1.4125  0.2412
 8530SOL    HW227041   5.907   0.371   6.172 -2.0347  2.9112 -0.1287
 8531SOL     OW27042   5.926   2.284   0.362 -0.1090 -0.3890  0.0668
 8531SOL    HW127043   5.861   2.353   0.370  0.3152  0.0431 -0.2117
 8531SOL    HW227044   5.998   2.323   0.313  1.3644 -0.1253  2.2879
 8532SOL     OW27045   5.141   3.941   3.664 -0.0640 -0.5853  0.1150
 8532SOL    HW127046   5.080   4.004   3.624  2.7914  1.9097 -0.6660
 8532SOL    HW227047   5.196   3.912   3.592  2.6150  0.8849  1.4313
 8533SOL     OW27048   1.552   0.040   2.712 -0.5153  0.9232 -0.2025
 8533SOL    HW127049   1.539  -0.038   2.766  1.1921 -0.3742 -1.5486
 8533SOL    HW227050   1.475   0.094   2.729 -1.8440 -1.1151  0.6641
 8534SOL     OW27051   5.640   1.006   3.590  0.1351  0.1759  0.6798
 8534SOL    HW127052   5.706   1.068   3.621  1.0934  0.7980 -2.2416
 8534SOL    HW227053   5.665   0.923   3.631  2.5470  0.4823  0.0266
 8535SOL     OW27054   0.049   2.995   2.791 -0.1724  0.1078  0.2537
 8535SOL    HW127055  -0.016   3.057   2.824 -0.0275 -0.2202  1.1886
 8535SOL    HW227056  -0.002   2.921   2.758 -0.2840 -0.1984  1.0858
 8536SOL     OW27057   4.665   5.966   1.212 -0.4076 -0.3595  0.1068
 8536SOL    HW127058   4.727   5.895   1.230 -0.8014 -0.5339  0.8001
 8536SOL    HW227059   4.592   5.950   1.271 -1.0005  0.0026 -0.5076
 8537SOL     OW27060   1.445   3.321   5.552  0.1422  0.3218  0.1549
 8537SOL    HW127061   1.465   3.412   5.570 -0.6424  0.2680  1.4355
 8537SOL    HW227062   1.358   3.307   5.591 -0.0354 -0.7979 -0.5871
 8538SOL     OW27063   0.206   6.598   3.692  0.1199  0.1847  0.3847
 8538SOL    HW127064   0.258   6.602   3.612  0.1034 -1.9082  0.2157
 8538SOL    HW227065   0.186   6.690   3.713  1.3440  0.8452 -1.1843
 8539SOL     OW27066   6.042   0.694   2.028  0.1649 -0.1431  0.3055
 8539SOL    HW127067   5.965   0.731   1.983  1.0153 -0.2398 -1.2961
 8539SOL    HW227068   6.010   0.612   2.065 -0.5856 -0.0273 -0.0499
 8540SOL     OW27069   1.412   6.477   2.653  0.8372  0.1503  0.3393
 8540SOL    HW127070   1.482   6.483   2.588 -1.4144 -1.2819 -2.4712
 8540SOL    HW227071   1.346   6.540   2.624 -0.9682 -1.7254  0.1214
 8541SOL     OW27072   5.893   4.845   4.351 -0.3045  0.3402 -0.1600
 8541SOL    HW127073   5.934   4.764   4.323  0.6963  1.4082 -1.9376
 8541SOL    HW227074   5.804   4.841   4.316 -0.8796 -0.7318  1.3049
 8542SOL     OW27075   3.831   0.236   5.614  0.7559 -0.5208  0.4912
 8542SOL    HW127076   3.756   0.182   5.635 -1.6237  2.6204  0.8607
 8542SOL    HW227077   3.826   0.249   5.519  0.6308 -0.1029  0.5495
 8543SOL     OW27078   1.431   5.580   5.058 -0.0088 -0.4743  0.3028
 8543SOL    HW127079   1.448   5.638   4.983 -0.3477 -1.2995 -0.4274
 8543SOL    HW227080   1.350   5.613   5.097 -0.8650 -1.1624 -0.8374
 8544SOL     OW27081   2.853   3.315   6.610  0.1394 -0.2898  0.0010
 8544SOL    HW127082   2.822   3.235   6.653 -0.3729  0.6844  1.5382
 8544SOL    HW227083   2.948   3.305   6.607 -0.0474 -2.2732 -2.6280
 8545SOL     OW27084   6.761   0.013   0.783 -0.0145  0.4266 -0.2355
 8545SOL    HW127085   6.853  -0.008   0.801  0.2258 -1.0110 -2.7457
 8545SOL    HW227086   6.711  -0.050   0.834  0.5156 -0.8341 -1.2264
 8546SOL     OW27087   0.021   4.991   4.394  0.0669  0.2919 -0.5116
 8546SOL    HW127088   0.005   5.026   4.482  1.0711  0.6161 -0.4423
 8546SOL    HW227089   0.093   4.929   4.406  0.1846  0.3127 -1.1033
 8547SOL     OW27090   0.134   6.978   6.305 -0.1972  0.6527 -0.0533
 8547SOL    HW127091   0.096   7.029   6.234 -1.5351 -1.4975 -0.9613
 8547SOL    HW227092   0.144   6.890   6.269  2.3996  0.2868  1.3248
 8548SOL     OW27093   1.853   5.489   4.720 -0.2517 -0.5312 -0.0823
 8548SOL    HW127094   1.808   5.568   4.748  0.1068 -1.3241  3.0971
 8548SOL    HW227095   1.941   5.518   4.695  0.4212  0.0022  2.6050
 8549SOL     OW27096   5.359   3.134   4.418  0.4080  0.2516  0.2592
 8549SOL    HW127097   5.287   3.114   4.477  2.0152 -1.7114  1.6924
 8549SOL    HW227098   5.316   3.155   4.335 -1.8777  2.0370  1.7596
 8550SOL     OW27099   3.874   3.198   2.645  0.1384  0.0107  0.1647
 8550SOL    HW127100   3.846   3.112   2.677 -1.3148 -0.2434 -1.6001
 8550SOL    HW227101   3.935   3.177   2.573 -0.0439  0.4578 -0.1230
 8551SOL     OW27102   5.856   0.653   6.012 -0.3979 -0.4924  0.2809
 8551SOL    HW127103   5.771   0.696   6.012 -1.5194 -2.6093  1.1016
 8551SOL    HW227104   5.868   0.624   6.103  1.2163 -0.2451  0.1864
 8552SOL     OW27105   5.867   3.078   4.521 -0.4489 -0.2175 -0.2056
 8552SOL    HW127106   5.807   3.065   4.447 -0.6187 -3.1322  0.3130
 8552SOL    HW227107   5.834   3.156   4.565 -3.6280 -1.3565 -0.2629
 8553SOL     OW27108   0.964   5.072   1.508  1.2689 -0.0605  0.0239
 8553SOL    HW127109   0.937   5.034   1.591 -2.1533  1.4271 -0.2519
 8553SOL    HW227110   0.987   5.163   1.530 -2.7429  1.3679 -0.8674
 8554SOL     OW27111   0.361   5.256   5.172 -0.2389 -0.5804  0.1483
 8554SOL    HW127112   0.362   5.343   5.133 -1.2645 -0.4970  0.2632
 8554SOL    HW227113   0.442   5.250   5.223  0.8039 -0.4427 -1.4271
 8555SOL     OW27114   0.768   4.813   2.132  0.0282  0.0183  0.4894
 8555SOL    HW127115   0.794   4.904   2.115 -0.4812  0.0191 -0.3388
 8555SOL    HW227116   0.722   4.786   2.052 -1.0744 -0.5148  1.2844
 8556SOL     OW27117   3.591   6.595   0.670 -0.1749 -0.1786  0.2301
 8556SOL    HW127118   3.623   6.542   0.743  2.5308 -0.0259 -0.7220
 8556SOL    HW227119   3.574   6.532   0.600 -0.5718 -0.1154  0.2677
 8557SOL     OW27120   0.839   6.094   1.712  0.2303 -0.3990  0.1913
 8557SOL    HW127121   0.889   6.068   1.789  0.9316  0.6311  0.1121
 8557SOL    HW227122   0.881   6.176   1.683  0.8280 -1.4103 -2.0467
 8558SOL     OW27123   3.846   3.009   6.755 -0.1211 -0.0686 -0.0366
 8558SOL    HW127124   3.810   2.956   6.683 -1.6536 -0.4029  0.9280
 8558SOL    HW227125   3.824   2.959   6.834  3.1228 -0.6381  0.6220
 8559SOL     OW27126   0.394   3.864   3.882 -0.3866 -0.2106  0.3004
 8559SOL    HW127127   0.443   3.786   3.907 -0.7399 -0.2577  0.8707
 8559SOL    HW227128   0.414   3.877   3.790 -0.4250 -1.0534  0.1645
 8560SOL     OW27129   0.601   6.469   1.047  0.0848  0.4068 -0.2009
 8560SOL    HW127130   0.588   6.386   1.001 -2.1319  0.4520  0.2356
 8560SOL    HW227131   0.693   6.490   1.032 -0.1892 -0.2318 -3.4990
 8561SOL     OW27132   6.192   6.233   6.147  0.2651  0.3806  0.4381
 8561SOL    HW127133   6.103   6.261   6.166 -0.0520 -1.3618  1.7302
 8561SOL    HW227134   6.237   6.237   6.231  0.4125 -2.0999  0.5292
 8562SOL     OW27135   0.494   0.562   6.015  0.3386  0.1591  0.0841
 8562SOL    HW127136   0.405   0.570   6.050  0.2031  0.9417 -0.4147
 8562SOL    HW227137   0.482   0.542   5.923  0.6957 -2.2774  0.5203
 8563SOL     OW27138   4.260   5.399   3.433  0.4545  0.0569 -0.1752
 8563SOL    HW127139   4.251   5.338   3.506 -0.7428  1.7433  1.1564
 8563SOL    HW227140   4.283   5.344   3.358  1.4746 -1.7482  1.4064
 8564SOL     OW27141   3.469   5.963   4.476 -0.2695  0.5658  0.1670
 8564SOL    HW127142   3.434   5.928   4.558  0.4238 -0.9227 -0.1321
 8564SOL    HW227143   3.561   5.936   4.476 -0.1029  1.0850 -0.8109
 8565SOL     OW27144   4.390   3.396   2.662  0.1167 -0.4222 -0.2767
 8565SOL    HW127145   4.321   3.391   2.595  1.3619  1.0431 -1.7557
 8565SOL    HW227146   4.460   3.340   2.628  1.3483  1.4452 -1.0457
 8566SOL     OW27147   0.739   0.136   2.770 -0.5560 -0.4715 -0.5284
 8566SOL    HW127148   0.752   0.137   2.865  2.9125  0.7576 -0.8442
 8566SOL    HW227149   0.686   0.214   2.753 -1.7224 -1.0252  0.3939
 8567SOL     OW27150   4.850   5.795   1.300 -0.1006 -0.2111 -0.1398
 8567SOL    HW127151   4.852   5.719   1.358  3.2575 -0.8987 -0.9170
 8567SOL    HW227152   4.920   5.778   1.236  0.3253  3.1899 -0.7806
 8568SOL     OW27153   2.517   1.312   2.372 -0.0950  0.3812 -0.0120
 8568SOL    HW127154   2.498   1.259   2.294 -0.8015 -1.1934  1.1768
 8568SOL    HW227155   2.606   1.345   2.356  0.7625 -1.9027 -0.4657
 8569SOL     OW27156   0.613   1.794   1.073  0.2004  0.2925 -1.0029
 8569SOL    HW127157   0.594   1.779   1.165  2.0797 -0.6252 -0.7225
 8569SOL    HW227158   0.687   1.855   1.073 -0.4999  1.1787 -1.9470
 8570SOL     OW27159   0.942   6.591   1.792  1.5410 -0.2819 -0.7679
 8570SOL    HW127160   0.964   6.679   1.762  0.3635  0.2418 -0.1603
 8570SOL    HW227161   0.974   6.587   1.882 -0.0457  0.2053 -0.1526
 8571SOL     OW27162   6.122   1.949   4.008  0.1035  0.2454  0.2120
 8571SOL    HW127163   6.111   1.870   4.062 -3.2650  0.3010 -0.2032
 8571SOL    HW227164   6.147   1.916   3.922 -0.4080 -0.3368  0.2791
 8572SOL     OW27165   5.785   0.391   4.830 -0.2657  0.3879  0.4223
 8572SOL    HW127166   5.696   0.417   4.806 -0.1383  1.3639  0.9621
 8572SOL    HW227167   5.784   0.295   4.828 -0.2818  0.3165 -3.3753
 8573SOL     OW27168   4.842   1.702   0.638 -0.1507  0.2714  0.3392
 8573SOL    HW127169   4.748   1.693   0.624 -0.2116 -0.0205  0.9042
 8573SOL    HW227170   4.882   1.657   0.563 -0.4698 -1.4926  1.1700
 8574SOL     OW27171   3.141   7.105   2.965  0.3420 -0.6995 -0.0752
 8574SOL    HW127172   3.078   7.156   3.016 -1.0056 -2.2154 -0.1243
 8574SOL    HW227173   3.127   7.132   2.875  1.9884  1.2070  0.1543
 8575SOL     OW27174   2.384   2.762   6.660 -0.1582 -0.1112 -0.6516
 8575SOL    HW127175   2.290   2.752   6.678 -0.0499  0.0373  0.0502
 8575SOL    HW227176   2.390   2.763   6.565 -0.7718 -1.0296 -0.7176
 8576SOL     OW27177   0.151   5.255   4.798  0.2216  0.1671 -0.5707
 8576SOL    HW127178   0.242   5.283   4.804  0.2565 -0.1997  0.9987
 8576SOL    HW227179   0.153   5.162   4.822 -0.6085  0.2543 -0.1093
 8577SOL     OW27180   4.283   6.235   1.313 -0.0845  0.4662 -0.2589
 8577SOL    HW127181   4.302   6.237   1.219  0.6339  0.1166 -0.1285
 8577SOL    HW227182   4.369   6.239   1.355 -0.3119 -0.7994  0.3710
 8578SOL     OW27183   5.192   6.424   2.640  0.5218  0.0252  0.1921
 8578SOL    HW127184   5.190   6.346   2.696 -1.7518  0.2128  0.4866
 8578SOL    HW227185   5.113   6.417   2.586 -0.6026  2.8291  1.2766
 8579SOL     OW27186   0.227   1.592   6.846 -0.3451 -0.3551  0.2121
 8579SOL    HW127187   0.308   1.542   6.833 -0.6466 -0.9130  0.4713
 8579SOL    HW227188   0.228   1.614   6.939  0.3618  1.1345 -0.1185
 8580SOL     OW27189   6.103   1.639   2.099 -0.0969  0.5367  0.0189
 8580SOL    HW127190   6.177   1.592   2.136 -0.4052 -0.8698 -1.0924
 8580SOL    HW227191   6.142   1.708   2.045  0.4352 -0.6055 -1.0871
 8581SOL     OW27192   2.551   1.135   2.152 -0.0793  0.1311 -0.3721
 8581SOL    HW127193   2.524   1.174   2.068 -1.1221  0.8050  0.2555
 8581SOL    HW227194   2.524   1.044   2.145  1.3193 -0.2258 -1.3988
 8582SOL     OW27195   0.975   0.113   1.348 -0.1078  0.5892  0.1005
 8582SOL    HW127196   0.984   0.180   1.415  2.0045  1.6574 -1.1334
 8582SOL    HW227197   0.915   0.151   1.284  0.7749  1.1905 -0.3985
 8583SOL     OW27198   4.061   4.967   4.902 -0.8613 -0.1909 -0.0395
 8583SOL    HW127199   4.065   5.049   4.852 -2.8259  0.3882  0.6875
 8583SOL    HW227200   3.973   4.965   4.938  0.0742 -1.1724  2.4109
 8584SOL     OW27201   3.926   0.508   4.168  0.0509  0.2870  0.0369
 8584SOL    HW127202   4.000   0.569   4.160  0.0723  0.1945 -0.4799
 8584SOL    HW227203   3.930   0.477   4.258  1.0306 -0.2113 -0.1658
 8585SOL     OW27204   1.618   4.033   6.476 -0.2818 -0.7295 -0.7939
 8585SOL    HW127205   1.704   4.074   6.473 -0.6045 -0.0321 -0.6221
 8585SOL    HW227206   1.569   4.075   6.405 -0.9095 -0.1304 -0.0269
 8586SOL     OW27207   0.003   4.534   2.645  0.0066 -1.2855  0.0993
 8586SOL    HW127208   0.031   4.625   2.644  1.1478 -1.6167  0.6503
 8586SOL    HW227209  -0.004   4.510   2.552  2.1490 -1.3532 -0.0799
 8587SOL     OW27210   0.119   5.602   6.975 -0.2612 -0.3821  0.2934
 8587SOL    HW127211   0.116   5.631   7.066  0.3857 -1.2574  0.6112
 8587SOL    HW227212   0.212   5.607   6.951 -0.3592 -0.6255 -0.1566
 8588SOL     OW27213   7.047   5.403   5.124  0.1413  0.0483  0.0607
 8588SOL    HW127214   7.105   5.412   5.200 -0.5653 -1.2316  0.7871
 8588SOL    HW227215   6.961   5.387   5.162  0.2565 -3.7707 -0.9048
 8589SOL     OW27216   4.828   2.277   0.005  0.1377  0.0043  0.5029
 8589SOL    HW127217   4.779   2.288  -0.077  1.7133  0.8107 -0.3818
 8589SOL    HW227218   4.900   2.218  -0.018  1.1052  0.9297  1.0378
 8590SOL     OW27219   5.006   5.299   0.550  0.5763  0.1266 -0.7903
 8590SOL    HW127220   4.946   5.234   0.586  1.3863 -0.4422 -0.4205
 8590SOL    HW227221   5.031   5.353   0.625  0.3665  0.4871 -0.9803
 8591SOL     OW27222   0.096   1.435   0.921 -0.1281 -0.6704  0.1015
 8591SOL    HW127223   0.088   1.528   0.899  2.2841 -0.4817 -0.1644
 8591SOL    HW227224   0.061   1.428   1.010  0.3570  0.6332  0.4107
 8592SOL     OW27225   1.046   2.315   4.466 -0.3360  0.5698 -0.8392
 8592SOL    HW127226   1.087   2.313   4.380 -0.0725  2.0219 -0.7879
 8592SOL    HW227227   0.959   2.278   4.453  0.8862 -2.5905 -0.9541
 8593SOL     OW27228   5.032   3.332   2.657 -0.2876 -0.0485 -0.2263
 8593SOL    HW127229   5.010   3.337   2.565 -1.3395  0.7527  0.0514
 8593SOL    HW227230   4.989   3.252   2.688 -0.7776  0.2116 -0.2240
 8594SOL     OW27231   0.259   1.180   6.076 -0.5797  0.4582 -0.2824
 8594SOL    HW127232   0.293   1.268   6.094 -2.5647  1.4290 -1.0033
 8594SOL    HW227233   0.165   1.193   6.063 -1.2703 -2.0645  1.4568
 8595SOL     OW27234   6.863   3.808   2.069  0.1290  0.1329  0.0835
 8595SOL    HW127235   6.878   3.756   2.149  2.6530  1.8673  0.8798
 8595SOL    HW227236   6.835   3.894   2.102 -0.9264  0.2342 -1.0369
 8596SOL     OW27237   6.650   5.721   3.684 -0.1788 -0.2630  0.5169
 8596SOL    HW127238   6.728   5.666   3.680 -0.4380 -0.5867 -0.3070
 8596SOL    HW227239   6.577   5.659   3.681 -0.4725  0.0792  0.4885
 8597SOL     OW27240   1.701   5.226   1.970  0.8051 -0.4381  0.1001
 8597SOL    HW127241   1.615   5.204   1.934  1.4825 -1.2540 -1.1009
 8597SOL    HW227242   1.733   5.146   2.010  0.5419  0.1734  1.6157
 8598SOL     OW27243   1.197   6.063   5.059  0.0149  0.3027 -0.0304
 8598SOL    HW127244   1.123   6.113   5.025 -0.9736 -0.7891  0.4253
 8598SOL    HW227245   1.220   6.003   4.987  0.7339  0.9164 -0.3202
 8599SOL     OW27246   3.526   1.544   2.017  0.5185 -0.3543 -0.2399
 8599SOL    HW127247   3.484   1.464   2.050  1.3719 -0.7116 -0.0084
 8599SOL    HW227248   3.458   1.586   1.965  0.3997 -1.8226 -1.3370
 8600SOL     OW27249   5.860   6.579   5.187  0.3010  0.1711  0.0415
 8600SOL    HW127250   5.900   6.599   5.103  2.1028 -0.7635  0.6356
 8600SOL    HW227251   5.795   6.649   5.199 -1.6559 -0.8791 -3.0907
 8601SOL     OW27252   3.401   2.605   6.092 -0.1194  0.5235  0.0069
 8601SOL    HW127253   3.354   2.675   6.046 -0.9853  0.0687  0.1939
 8601SOL    HW227254   3.480   2.592   6.040  0.7709  2.5841  0.7014
 8602SOL     OW27255   0.079   3.273   2.391 -0.2951 -0.4766 -0.1154
 8602SOL    HW127256   0.061   3.316   2.475 -1.4272  2.6955 -1.8108
 8602SOL    HW227257   0.160   3.315   2.360 -0.1569 -1.2536 -0.8389
 8603SOL     OW27258   3.544   1.295   1.819 -0.4268  0.2268 -0.2212
 8603SOL    HW127259   3.603   1.366   1.845 -0.9351  0.3347  0.6926
 8603SOL    HW227260   3.514   1.319   1.732  0.2161  0.5967 -0.3516
 8604SOL     OW27261   7.083   2.012   2.192  0.1484  0.3061 -0.1564
 8604SOL    HW127262   7.131   2.091   2.219  0.5548 -0.4499  1.4929
 8604SOL    HW227263   7.146   1.941   2.205 -1.0558 -0.5888  1.0940
 8605SOL     OW27264   5.902   6.306   7.039 -0.1034  0.3102 -0.3963
 8605SOL    HW127265   5.857   6.303   7.123 -0.0911  0.7368 -0.3737
 8605SOL    HW227266   5.915   6.214   7.016 -1.7471  0.1518 -0.8249
 8606SOL     OW27267   0.330   2.271   6.508 -0.2013 -0.1713  0.4126
 8606SOL    HW127268   0.336   2.269   6.412  2.4201 -2.4269  0.5084
 8606SOL    HW227269   0.276   2.196   6.530  0.6452 -0.6973  0.7318
 8607SOL     OW27270   6.581   3.153   4.607  0.0895 -0.1503  0.0659
 8607SOL    HW127271   6.495   3.194   4.611  0.5837  0.8633  1.0830
 8607SOL    HW227272   6.603   3.133   4.698  1.0188 -0.1830 -0.1485
 8608SOL     OW27273   3.285   1.125   5.221 -0.2371  0.1490 -0.2074
 8608SOL    HW127274   3.329   1.055   5.172 -1.4822 -0.1337 -0.9687
 8608SOL    HW227275   3.264   1.085   5.306 -0.9661 -0.4362 -0.6469
 8609SOL     OW27276   6.943   7.134   6.348 -0.1006  0.1374  0.0821
 8609SOL    HW127277   6.947   7.204   6.413 -1.2176  0.9229 -0.6794
 8609SOL    HW227278   6.969   7.055   6.397 -2.6824  0.3659  2.0097
 8610SOL     OW27279   6.740   3.980   1.707 -0.3740 -0.0778  0.1506
 8610SOL    HW127280   6.676   4.021   1.650 -1.2918 -1.4283  0.1722
 8610SOL    HW227281   6.732   3.886   1.690  0.1477 -0.4264  1.6424
 8611SOL     OW27282   4.932   5.065   4.064 -0.5417 -0.1743  0.4536
 8611SOL    HW127283   4.867   5.026   4.124 -2.8039  0.0113 -1.7281
 8611SOL    HW227284   4.994   4.994   4.047 -1.7011 -1.2390  0.5059
 8612SOL     OW27285   3.315   0.695   0.726  0.1326  0.3760 -0.2760
 8612SOL    HW127286   3.316   0.790   0.733  3.2055  0.6059 -2.0642
 8612SOL    HW227287   3.305   0.677   0.633 -3.1706 -1.2760  0.2187
 8613SOL     OW27288   4.929   4.325   5.847  0.6719  0.0057 -0.0280
 8613SOL    HW127289   4.935   4.395   5.782  0.9455 -0.9431 -1.0722
 8613SOL    HW227290   5.019   4.313   5.877  0.5648  0.3546  0.4521
 8614SOL     OW27291   4.115   5.171   1.541 -0.4993 -0.6799  0.3191
 8614SOL    HW127292   4.090   5.092   1.590 -1.0547 -1.2389 -0.8144
 8614SOL    HW227293   4.081   5.155   1.453 -0.4279  0.7476  0.0213
 8615SOL     OW27294   0.516   1.177   5.966 -0.4295 -0.6877 -0.2961
 8615SOL    HW127295   0.504   1.224   5.884  0.2980  0.1318  0.0391
 8615SOL    HW227296   0.427   1.158   5.997 -0.7345  0.1506 -0.6332
 8616SOL     OW27297   2.133   2.421   1.898  0.4620  0.8651  0.0683
 8616SOL    HW127298   2.198   2.352   1.888 -0.0898  0.4818 -1.0420
 8616SOL    HW227299   2.160   2.489   1.836 -0.5476  0.4081 -0.9084
 8617SOL     OW27300   2.169   1.650   0.825  1.0093  0.6534 -0.0840
 8617SOL    HW127301   2.199   1.741   0.824  0.1362  0.9617  0.5678
 8617SOL    HW227302   2.091   1.651   0.881  0.0479 -0.1886 -1.3517
 8618SOL     OW27303   0.262   4.105   2.108 -0.1864  0.3022  0.1517
 8618SOL    HW127304   0.212   4.024   2.103  0.2106  0.0918 -0.5894
 8618SOL    HW227305   0.207   4.170   2.064 -0.6555  0.5290  1.0407
 8619SOL     OW27306   4.962   4.056   5.702  0.0998  0.0156  0.3394
 8619SOL    HW127307   4.919   4.125   5.753  0.1506 -0.1007  0.5391
 8619SOL    HW227308   4.890   4.012   5.656  0.2283  1.4267 -1.3163
 8620SOL     OW27309   6.789   2.368   0.223  0.0547 -0.5400 -0.3966
 8620SOL    HW127310   6.869   2.339   0.268 -0.5221  0.3538  1.3077
 8620SOL    HW227311   6.741   2.288   0.205  0.3989 -0.9470  0.4494
 8621SOL     OW27312   4.966   3.051   1.755 -0.3683 -0.2682  0.2851
 8621SOL    HW127313   4.906   3.054   1.680 -0.0842 -1.1099  0.0159
 8621SOL    HW227314   5.016   2.970   1.743 -1.3315 -1.2213  2.1387
 8622SOL     OW27315   4.402   0.327   7.090  0.1372  0.4276 -0.0019
 8622SOL    HW127316   4.449   0.257   7.045  0.3528  0.0004  0.8777
 8622SOL    HW227317   4.351   0.283   7.159  1.1491  1.2194  1.3011
 8623SOL     OW27318   4.052   3.122   1.122 -0.4328 -0.7986  0.0749
 8623SOL    HW127319   4.129   3.089   1.169  0.1757  1.7281  0.9892
 8623SOL    HW227320   4.074   3.111   1.029  1.0376 -0.1446  0.3207
 8624SOL     OW27321   5.861   3.316   6.790 -0.4858  0.3709  0.4919
 8624SOL    HW127322   5.801   3.249   6.822  1.4707 -1.8224 -0.1980
 8624SOL    HW227323   5.917   3.336   6.865 -1.3235  1.6344  0.8223
 8625SOL     OW27324   2.231   5.312   6.065 -0.2744  0.0516  0.6721
 8625SOL    HW127325   2.220   5.232   6.013 -0.3776 -0.0093  0.7858
 8625SOL    HW227326   2.223   5.282   6.156 -0.4413  0.2110  0.7098
 8626SOL     OW27327   1.678   6.444   5.391  0.6803 -0.3874  0.0570
 8626SOL    HW127328   1.702   6.536   5.386 -0.7575  0.0823  1.1768
 8626SOL    HW227329   1.733   6.408   5.460  2.0407 -0.6812 -1.1217
 8627SOL     OW27330   0.539   6.744   0.817 -0.3866 -0.1414  0.4002
 8627SOL    HW127331   0.536   6.839   0.828  2.8892  0.1612 -0.2425
 8627SOL    HW227332   0.611   6.716   0.873 -0.1059 -1.9792 -0.7839
 8628SOL     OW27333   4.568   0.461   4.198  0.8173 -0.1735 -0.0053
 8628SOL    HW127334   4.627   0.391   4.171  2.1563  0.5225  0.9682
 8628SOL    HW227335   4.545   0.506   4.116 -0.5983 -2.0950 -0.7246
 8629SOL     OW27336   4.529   4.539   1.179 -0.5600 -0.1511  0.4216
 8629SOL    HW127337   4.583   4.496   1.245  1.2690  1.7353  0.2574
 8629SOL    HW227338   4.441   4.504   1.194  0.5651 -3.0150  0.9815
 8630SOL     OW27339   5.577   6.609   5.402  0.7383 -0.0739  0.0133
 8630SOL    HW127340   5.621   6.592   5.485 -1.4260 -0.3926  1.1725
 8630SOL    HW227341   5.500   6.662   5.426  1.0634  1.4684 -2.0541
 8631SOL     OW27342   4.669   4.217   3.887  0.3641  0.2181  0.3226
 8631SOL    HW127343   4.669   4.295   3.943 -1.0317 -0.3400  1.1583
 8631SOL    HW227344   4.581   4.215   3.850  0.0907 -1.4171  0.9926
 8632SOL     OW27345   2.867   3.300   5.606  0.4922  0.0580 -0.5003
 8632SOL    HW127346   2.866   3.294   5.701 -0.6050 -0.3275 -0.5187
 8632SOL    HW227347   2.960   3.298   5.582  0.9316  2.6721  0.6927
 8633SOL     OW27348   2.884   0.328   6.976  0.0235 -0.6393 -0.8004
 8633SOL    HW127349   2.879   0.249   7.030 -0.8756 -0.8909 -1.2337
 8633SOL    HW227350   2.828   0.309   6.902 -0.1951  0.4149 -0.9077
 8634SOL     OW27351   6.610   4.000   5.706  0.7222  0.4576 -0.1573
 8634SOL    HW127352   6.650   4.076   5.748  0.5880  0.2231  0.4059
 8634SOL    HW227353   6.596   4.027   5.615 -0.4714  1.5555  0.3202
 8635SOL     OW27354   5.574   5.830   1.588  0.4326 -0.3610  0.3365
 8635SOL    HW127355   5.613   5.776   1.657 -0.2567 -0.7274  0.4525
 8635SOL    HW227356   5.483   5.840   1.615  0.7583  1.7040  0.8288
 8636SOL     OW27357   1.356   1.697   6.321  0.3147 -0.1839 -0.2279
 8636SOL    HW127358   1.389   1.698   6.231  2.0374 -0.9902  0.3500
 8636SOL    HW227359   1.403   1.624   6.362  1.1162  1.4449  1.8812
 8637SOL     OW27360   6.971   6.079   4.532 -0.4566  0.1553 -0.0941
 8637SOL    HW127361   7.028   6.070   4.456  1.0492 -1.4089  1.1328
 8637SOL    HW227362   6.931   6.165   4.522  1.8617  1.1936 -1.1990
 8638SOL     OW27363   0.146   2.809   3.884  0.5073 -0.4526 -0.5689
 8638SOL    HW127364   0.136   2.732   3.940  1.3577  0.4582  0.8846
 8638SOL    HW227365   0.189   2.776   3.805 -0.4236 -1.7005 -0.5957
 8639SOL     OW27366   2.783   0.411   1.127  0.2399 -0.0532 -0.0289
 8639SOL    HW127367   2.787   0.479   1.193  0.6958 -0.8810  0.8264
 8639SOL    HW227368   2.757   0.456   1.047 -0.0730  1.0095  0.6536
 8640SOL     OW27369   5.388   3.979   0.059  0.1591 -0.1669 -0.5964
 8640SOL    HW127370   5.449   4.034   0.011  0.4955 -1.0405 -1.1923
 8640SOL    HW227371   5.377   3.901   0.004 -0.0202 -0.8628  0.4004
 8641SOL     OW27372   0.232   4.004   0.789  0.0512 -0.0964 -0.1995
 8641SOL    HW127373   0.310   3.952   0.768 -0.1974 -0.1986 -0.8894
 8641SOL    HW227374   0.253   4.092   0.757  0.4970  0.2686  1.0239
 8642SOL     OW27375   3.086   2.673   1.429 -0.3321  0.6265  0.7179
 8642SOL    HW127376   3.057   2.627   1.350  0.7576  1.2277 -0.0699
 8642SOL    HW227377   3.018   2.738   1.446 -0.1332  1.1347 -0.3135
 8643SOL     OW27378   0.565   5.449   6.619  0.1825  0.4236 -0.0443
 8643SOL    HW127379   0.613   5.366   6.625 -2.0608 -0.8406  1.7826
 8643SOL    HW227380   0.526   5.448   6.531  3.7271  1.7748 -1.8451
 8644SOL     OW27381   1.529   4.274   2.358 -0.3235 -0.0558 -0.0566
 8644SOL    HW127382   1.483   4.357   2.352  1.5436  1.1509  1.2787
 8644SOL    HW227383   1.622   4.297   2.357  0.2863 -2.2167 -0.6376
 8645SOL     OW27384   1.744   6.140   2.042 -0.0538 -0.5026 -1.1092
 8645SOL    HW127385   1.728   6.231   2.018 -1.3758  0.1079  1.7176
 8645SOL    HW227386   1.829   6.141   2.086 -0.6321 -0.3561  0.0407
 8646SOL     OW27387   7.111   3.245   5.639 -0.1862  0.3267 -0.0010
 8646SOL    HW127388   7.023   3.243   5.678  0.8362  0.7626  2.5560
 8646SOL    HW227389   7.142   3.155   5.646  0.1643  0.4919  0.6395
 8647SOL     OW27390   3.863   0.689   1.990 -0.2002 -0.1639  0.0922
 8647SOL    HW127391   3.868   0.750   1.916 -0.7227  0.0089  0.1918
 8647SOL    HW227392   3.791   0.630   1.968 -0.4026 -0.0701  0.4910
 8648SOL     OW27393   6.137   3.546   3.921 -0.5129 -0.1868  0.5577
 8648SOL    HW127394   6.184   3.541   3.837 -2.0381  0.1658 -0.3627
 8648SOL    HW227395   6.189   3.491   3.980  3.2038  3.0836  0.7528
 8649SOL     OW27396   2.978   6.548   0.113 -0.3273 -0.0130 -0.6297
 8649SOL    HW127397   3.020   6.463   0.100  0.6971  0.2931  0.4937
 8649SOL    HW227398   2.908   6.530   0.176 -1.9723 -0.5212 -2.4944
 8650SOL     OW27399   1.655   0.624   2.241 -0.2902  0.5404 -0.1477
 8650SOL    HW127400   1.566   0.588   2.234 -0.7876  1.5193  0.9229
 8650SOL    HW227401   1.665   0.646   2.333  1.9205 -1.6133  0.2231
 8651SOL     OW27402   2.881   6.110   2.841  0.7086 -0.3733 -0.4962
 8651SOL    HW127403   2.853   6.178   2.780  1.6976 -1.1807 -1.9069
 8651SOL    HW227404   2.837   6.031   2.811  1.9661 -0.9855 -0.7913
 8652SOL     OW27405   4.435   5.613   1.823 -0.0461 -0.1275  0.3333
 8652SOL    HW127406   4.445   5.572   1.737 -1.2406  0.8645 -0.3159
 8652SOL    HW227407   4.362   5.566   1.864 -1.0242  0.8928 -0.1722
 8653SOL     OW27408   4.071   0.249   3.865  0.2058 -0.9986  0.4244
 8653SOL    HW127409   4.058   0.168   3.816 -0.7662  0.0351 -1.1304
 8653SOL    HW227410   4.082   0.316   3.797 -1.3975  0.5417  1.5932
 8654SOL     OW27411   0.932   2.170   3.401  0.3813  0.3456 -0.0345
 8654SOL    HW127412   0.876   2.102   3.438  0.5520  1.1259  1.7752
 8654SOL    HW227413   0.908   2.249   3.449  1.5281  1.1458 -0.7436
 8655SOL     OW27414   5.951   1.596   4.529  0.7866 -0.2183 -0.0773
 8655SOL    HW127415   5.967   1.548   4.610  0.2688  1.2967  0.9718
 8655SOL    HW227416   6.035   1.592   4.482  1.6411  0.2950  1.3271
 8656SOL     OW27417   3.328   2.421   5.807  0.1251  0.5018  0.3618
 8656SOL    HW127418   3.379   2.482   5.860 -0.0311  2.6495 -1.7706
 8656SOL    HW227419   3.393   2.374   5.755  0.1560  2.7789 -1.8800
 8657SOL     OW27420   5.381   0.070   3.304  0.0489 -0.6254  0.3671
 8657SOL    HW127421   5.397   0.071   3.398  0.4393  1.5043  0.3136
 8657SOL    HW227422   5.353   0.158   3.282 -0.0164 -1.0605 -1.5293
 8658SOL     OW27423   1.052   6.897   4.928 -0.1490 -0.8129  0.2992
 8658SOL    HW127424   1.087   6.923   5.013  0.5670 -0.7442 -0.0075
 8658SOL    HW227425   0.976   6.843   4.949 -1.9094  1.7325  0.9638
 8659SOL     OW27426   6.563   4.431   0.274  0.0465  0.3454  0.4154
 8659SOL    HW127427   6.478   4.388   0.265  0.9392 -1.1712 -1.4527
 8659SOL    HW227428   6.545   4.524   0.257 -1.0153 -0.1952 -1.8044
 8660SOL     OW27429   1.277   2.653   3.649  0.2469  0.3367  0.2024
 8660SOL    HW127430   1.191   2.631   3.612 -0.3445  0.6690  1.3200
 8660SOL    HW227431   1.273   2.619   3.739  1.3232  0.2742  0.2333
 8661SOL     OW27432   1.425   1.877   4.854 -0.4686 -0.2729  0.4107
 8661SOL    HW127433   1.407   1.963   4.891  0.0710 -0.3618  0.9092
 8661SOL    HW227434   1.339   1.839   4.837 -0.7074  0.3919  0.1195
 8662SOL     OW27435   4.546   4.548   6.343 -0.6301  0.4464  0.2044
 8662SOL    HW127436   4.620   4.607   6.327 -0.7209  0.0916 -1.7289
 8662SOL    HW227437   4.503   4.584   6.420  1.2704  0.9318  1.0985
 8663SOL     OW27438   1.663   4.398   3.166 -0.1160 -0.2941  0.1232
 8663SOL    HW127439   1.625   4.484   3.179  0.1503  0.0506 -1.2089
 8663SOL    HW227440   1.604   4.354   3.104  0.3215 -0.6592 -0.0452
 8664SOL     OW27441   2.960   4.124   4.831 -0.2179  0.2071 -0.7908
 8664SOL    HW127442   3.029   4.084   4.779  0.5912  0.2896  0.1848
 8664SOL    HW227443   2.914   4.181   4.770  1.8744  1.7687 -1.0248
 8665SOL     OW27444   1.669   3.941   1.245  0.0419  0.5913 -0.2956
 8665SOL    HW127445   1.609   3.937   1.320 -0.3874  2.1765 -0.5078
 8665SOL    HW227446   1.612   3.941   1.168  0.4506 -0.3318 -0.6110
 8666SOL     OW27447   7.056   6.753   2.337  0.1597 -0.2978  0.1818
 8666SOL    HW127448   7.107   6.787   2.263  0.9516 -1.2744  0.2735
 8666SOL    HW227449   6.989   6.698   2.296  1.3526 -1.8280  0.2309
 8667SOL     OW27450   4.769   6.983   6.457 -0.4577  0.1214  0.1946
 8667SOL    HW127451   4.680   6.981   6.421 -1.3314  0.0692  2.2375
 8667SOL    HW227452   4.775   7.068   6.501  0.9851  0.6671 -1.0045
 8668SOL     OW27453   1.589   4.420   3.955 -0.4023 -0.0147  0.1555
 8668SOL    HW127454   1.621   4.340   3.997  0.3694  0.5405  0.6671
 8668SOL    HW227455   1.669   4.465   3.925 -0.6966  1.2927  1.2334
 8669SOL     OW27456   3.206   3.985   3.499  0.4430  0.1771  0.2478
 8669SOL    HW127457   3.176   3.987   3.590  1.3037  2.1826  0.5476
 8669SOL    HW227458   3.126   3.992   3.447 -0.0574 -0.9653  0.8348
 8670SOL     OW27459   6.505   3.485   3.549  0.4007  0.0882 -0.6490
 8670SOL    HW127460   6.600   3.496   3.549  0.3480  1.5585  2.2287
 8670SOL    HW227461   6.492   3.391   3.561  1.7564  0.2002  3.2823
 8671SOL     OW27462   7.010   6.479   3.767 -0.8048 -0.2512 -0.1568
 8671SOL    HW127463   6.951   6.555   3.769 -0.5677 -0.0764  1.9651
 8671SOL    HW227464   6.952   6.405   3.749 -1.2788  0.2217 -0.6258
 8672SOL     OW27465   6.312   0.858   3.718 -0.0526 -0.3619  0.0816
 8672SOL    HW127466   6.223   0.886   3.699 -0.8365 -1.0055  2.4745
 8672SOL    HW227467   6.323   0.776   3.670 -0.4551  0.1030 -0.8275
 8673SOL     OW27468   3.671   4.684   2.749 -0.1585 -0.3009  0.0394
 8673SOL    HW127469   3.682   4.615   2.815  2.4752 -0.0998 -0.0547
 8673SOL    HW227470   3.760   4.700   2.718 -0.9714  1.7388 -1.4068
 8674SOL     OW27471   1.848   5.758   6.716  0.0852  0.0595 -0.1696
 8674SOL    HW127472   1.784   5.819   6.680  0.2626  0.2479 -0.1672
 8674SOL    HW227473   1.932   5.805   6.710  0.2376 -0.2213 -0.2645
 8675SOL     OW27474   1.672   1.931   5.732  0.1777 -0.9018  0.4146
 8675SOL    HW127475   1.690   1.983   5.810 -0.5608 -0.8294  0.5387
 8675SOL    HW227476   1.580   1.945   5.714  0.5826 -0.0592 -1.1156
 8676SOL     OW27477   4.394   2.358   3.159 -0.0840  0.1744 -0.3299
 8676SOL    HW127478   4.318   2.417   3.161 -1.3679 -1.4067  0.9267
 8676SOL    HW227479   4.363   2.281   3.111  1.4115  0.3016 -1.5601
 8677SOL     OW27480   4.255   5.484   5.013 -0.3615 -0.3477  0.2210
 8677SOL    HW127481   4.349   5.487   5.031 -0.2148  1.9422 -0.5725
 8677SOL    HW227482   4.243   5.404   4.962  0.7950 -1.7282  1.9769
 8678SOL     OW27483   5.779   6.017   1.203 -0.1730 -0.0128 -0.0412
 8678SOL    HW127484   5.755   6.076   1.275  0.7035  2.0939 -1.3493
 8678SOL    HW227485   5.699   6.009   1.151  0.5196  3.3863 -1.9820
 8679SOL     OW27486   3.768   6.098   0.249 -0.4519 -0.0778 -0.1827
 8679SOL    HW127487   3.727   6.174   0.206  0.6149  0.3229 -0.5155
 8679SOL    HW227488   3.697   6.034   0.256 -1.0911  0.5258 -0.9207
 8680SOL     OW27489   1.048   0.967   7.046  0.0386 -0.5322  0.1112
 8680SOL    HW127490   0.954   0.979   7.059  0.1304 -0.2866  0.5598
 8680SOL    HW227491   1.086   1.053   7.060  0.4293 -0.8145  0.8639
 8681SOL     OW27492   4.530   4.655   6.785  0.6680  0.5589  0.0754
 8681SOL    HW127493   4.543   4.607   6.867  1.3024  3.5815  1.8916
 8681SOL    HW227494   4.607   4.711   6.777  0.0990  1.1147 -2.0527
 8682SOL     OW27495   3.423   6.251   0.659 -0.2129 -0.4093  0.2146
 8682SOL    HW127496   3.389   6.286   0.741  1.5494 -1.0868  1.2949
 8682SOL    HW227497   3.347   6.247   0.601 -0.9722  2.7380  0.8334
 8683SOL     OW27498   1.147   1.221   7.117 -0.1243  0.2583  0.1817
 8683SOL    HW127499   1.219   1.238   7.177 -0.8969  0.9859  0.9352
 8683SOL    HW227500   1.074   1.273   7.152 -0.5448  0.8594 -1.4884
 8684SOL     OW27501   0.358   5.311   3.859 -0.6586  0.4151  0.4706
 8684SOL    HW127502   0.368   5.372   3.786 -0.7123 -1.0695 -0.8420
 8684SOL    HW227503   0.265   5.312   3.879 -0.6481  0.8060  0.5001
 8685SOL     OW27504   6.673   1.739   0.999  0.8104  0.4556  1.0944
 8685SOL    HW127505   6.720   1.682   0.939  0.1002  0.2510  0.7245
 8685SOL    HW227506   6.717   1.824   0.991 -0.3800  0.9347 -1.1018
 8686SOL     OW27507   7.005   5.452   3.567  0.3001  0.2131 -0.2423
 8686SOL    HW127508   7.011   5.538   3.609  1.5218  0.5483 -1.0433
 8686SOL    HW227509   7.010   5.390   3.639  1.0712  0.8006  0.2352
 8687SOL     OW27510   2.331   0.674   0.517  0.0988 -0.2145  0.5329
 8687SOL    HW127511   2.275   0.711   0.448  0.8091  1.1728  0.6545
 8687SOL    HW227512   2.414   0.656   0.473  0.5715  0.7233  1.0044
 8688SOL     OW27513   0.393   6.010   5.905  0.4017 -0.2458 -0.0900
 8688SOL    HW127514   0.454   5.998   5.832  2.3564  0.8275  1.2840
 8688SOL    HW227515   0.401   6.103   5.928 -1.0597 -0.3017  0.7594
 8689SOL     OW27516   2.689   6.944   4.481 -0.3810  0.3965  0.1377
 8689SOL    HW127517   2.680   7.029   4.524 -0.2468  0.1022  0.7706
 8689SOL    HW227518   2.784   6.927   4.482 -0.4529 -0.0039  0.5133
 8690SOL     OW27519   0.638   1.310   3.905 -0.4018  0.1852  0.6769
 8690SOL    HW127520   0.650   1.294   3.999  0.5729 -0.1853  0.4987
 8690SOL    HW227521   0.588   1.234   3.875  1.5257 -1.0455  0.4257
 8691SOL     OW27522   6.869   0.485   0.654 -0.2073  0.2087  0.0611
 8691SOL    HW127523   6.957   0.518   0.671  0.1083 -0.7730  0.3874
 8691SOL    HW227524   6.876   0.390   0.662 -0.6920 -0.1360 -2.5610
 8692SOL     OW27525   6.931   5.882   6.527  0.4044  0.0216  0.1849
 8692SOL    HW127526   6.932   5.918   6.616  0.4557 -1.2261  0.7128
 8692SOL    HW227527   6.959   5.791   6.538  0.0762 -0.2495 -1.0708
 8693SOL     OW27528   2.590   3.586   6.897 -0.0168 -0.3291  0.3063
 8693SOL    HW127529   2.606   3.676   6.925  0.1878  0.6343 -2.5030
 8693SOL    HW227530   2.520   3.555   6.954  2.2658  0.2602  3.7094
 8694SOL     OW27531   1.137   4.304   4.826 -0.6646 -0.6271 -0.3530
 8694SOL    HW127532   1.093   4.385   4.852 -1.3947 -0.9017 -0.7118
 8694SOL    HW227533   1.130   4.248   4.903  2.8094  0.7776  1.1950
 8695SOL     OW27534   6.918   3.601   3.302  0.2833 -0.0417 -0.1904
 8695SOL    HW127535   6.938   3.687   3.338 -0.3063  0.2477 -0.5290
 8695SOL    HW227536   7.000   3.571   3.264  0.5696  0.2355  0.2039
 8696SOL     OW27537   6.243   5.168   2.771 -0.2937 -0.2351 -0.1824
 8696SOL    HW127538   6.290   5.135   2.694 -0.0055  1.3760 -0.7235
 8696SOL    HW227539   6.174   5.103   2.786 -0.7656 -0.2648 -2.1995
 8697SOL     OW27540   5.616   5.998   6.623  0.6979 -0.3488 -0.2545
 8697SOL    HW127541   5.689   5.964   6.571 -0.0458 -1.1311 -0.8109
 8697SOL    HW227542   5.590   5.924   6.678  1.4845  0.4707  1.2772
 8698SOL     OW27543   6.460   4.406   1.537 -0.0872 -0.2029  0.3141
 8698SOL    HW127544   6.389   4.452   1.492  0.2050 -1.0031 -1.0221
 8698SOL    HW227545   6.468   4.323   1.490  1.2715 -0.4182  0.8782
 8699SOL     OW27546   2.275   1.066   1.272 -0.9505 -0.1558  0.2664
 8699SOL    HW127547   2.300   1.155   1.297  0.4517 -0.3956 -0.1821
 8699SOL    HW227548   2.342   1.039   1.209 -1.8436 -1.2186 -0.2659
 8700SOL     OW27549   3.051   2.378   3.514  0.3452  0.6361  0.0840
 8700SOL    HW127550   3.095   2.310   3.463  2.5529  2.3572 -0.4291
 8700SOL    HW227551   3.047   2.454   3.455  1.5840  2.2036  1.9104
 8701SOL     OW27552   6.730   1.394   6.070  0.5844 -0.0169 -0.2476
 8701SOL    HW127553   6.730   1.306   6.031  1.0342 -0.2636  0.2901
 8701SOL    HW227554   6.638   1.419   6.074  0.4014 -0.7111  0.1273
 8702SOL     OW27555   1.832   6.727   5.227 -0.4086 -0.1366  0.0539
 8702SOL    HW127556   1.885   6.659   5.186  0.5716  1.1299 -0.8728
 8702SOL    HW227557   1.742   6.705   5.204 -0.1038 -1.1133 -0.2208
 8703SOL     OW27558   5.225   4.807   2.424 -0.1114 -0.9475  0.0692
 8703SOL    HW127559   5.151   4.848   2.379  2.1010  1.0701 -2.1027
 8703SOL    HW227560   5.265   4.879   2.472  0.4615 -1.9948  1.1966
 8704SOL     OW27561   3.033   2.062   0.224  0.0915  0.0192 -0.0844
 8704SOL    HW127562   3.087   2.005   0.170  0.2311  1.1262 -1.1573
 8704SOL    HW227563   3.015   2.010   0.303  0.8696 -1.1859 -0.6650
 8705SOL     OW27564   0.655   3.044   3.521 -0.1760  0.1729 -0.1431
 8705SOL    HW127565   0.716   3.056   3.594  0.5924  1.7458 -0.9793
 8705SOL    HW227566   0.706   2.995   3.456 -0.4828 -0.2512 -0.0656
 8706SOL     OW27567   6.173   1.466   1.711 -0.1754 -0.5499  0.0433
 8706SOL    HW127568   6.174   1.542   1.652  0.8089  0.7614  1.6682
 8706SOL    HW227569   6.080   1.451   1.729 -0.4649 -0.7375 -1.5061
 8707SOL     OW27570   4.401   1.029   7.051 -0.6879  0.2111  0.5189
 8707SOL    HW127571   4.351   0.964   7.002  0.6691 -0.0518 -0.5809
 8707SOL    HW227572   4.415   0.988   7.137 -0.6642 -0.5438  0.1599
 8708SOL     OW27573   4.129   4.130   6.181 -1.1689  0.1168  0.0616
 8708SOL    HW127574   4.173   4.161   6.102  1.7707 -0.1390  1.4600
 8708SOL    HW227575   4.144   4.035   6.181 -2.1117 -0.0423  0.3990
 8709SOL     OW27576   6.691   2.489   4.926  0.2189 -0.1503 -0.5155
 8709SOL    HW127577   6.618   2.538   4.963  0.3634  0.9252 -1.5908
 8709SOL    HW227578   6.753   2.481   4.999 -0.4396 -0.0233  0.0772
 8710SOL     OW27579   5.946   2.890   6.522 -0.4325 -0.4234  0.5940
 8710SOL    HW127580   5.861   2.915   6.483 -1.5633 -1.7162  2.1184
 8710SOL    HW227581   5.990   2.974   6.538 -0.6614  0.2291 -1.7263
 8711SOL     OW27582   0.200   1.244   6.685  0.3416 -0.2967  0.2425
 8711SOL    HW127583   0.288   1.270   6.711  0.3688 -0.3061  0.1607
 8711SOL    HW227584   0.190   1.279   6.596  0.5987 -1.0725 -0.0989
 8712SOL     OW27585   6.641   4.279   3.971  0.2446  0.5856  0.0552
 8712SOL    HW127586   6.651   4.280   4.066 -0.2465  0.9839  0.1098
 8712SOL    HW227587   6.558   4.234   3.956  0.2747  0.6074 -0.1784
 8713SOL     OW27588   6.905   3.309   1.261 -0.5932 -0.1515  0.1516
 8713SOL    HW127589   6.902   3.300   1.356 -0.4440 -0.0089  0.1709
 8713SOL    HW227590   6.971   3.378   1.245 -1.0878  0.2857 -0.0224
 8714SOL     OW27591   6.784   5.329   1.717  0.3851 -0.3568 -0.3215
 8714SOL    HW127592   6.702   5.280   1.724  0.2824 -0.1671 -0.1989
 8714SOL    HW227593   6.773   5.403   1.777  0.2292  0.2588 -1.1044
 8715SOL     OW27594   7.029   5.139   4.924 -0.4672  0.0761 -0.2025
 8715SOL    HW127595   7.115   5.112   4.956 -1.1666 -0.7092  1.1015
 8715SOL    HW227596   7.007   5.216   4.976 -0.1094  0.9273 -1.2830
 8716SOL     OW27597   3.105   6.037   2.429  0.5404  0.3786  0.5066
 8716SOL    HW127598   3.019   6.008   2.400  0.7798 -0.1541  0.3050
 8716SOL    HW227599   3.088   6.109   2.489  0.0057  1.1063 -0.5041
 8717SOL     OW27600   3.014   2.395   2.323 -0.6636  0.0435  0.0296
 8717SOL    HW127601   3.077   2.335   2.283 -1.3617 -0.1973 -0.7464
 8717SOL    HW227602   2.975   2.442   2.250 -0.1747  1.4244  0.6253
 8718SOL     OW27603   4.139   3.489   1.345 -0.1017 -0.3523 -0.1366
 8718SOL    HW127604   4.075   3.419   1.331 -0.5420  0.1385 -0.6011
 8718SOL    HW227605   4.215   3.444   1.383 -0.0237 -1.2433 -1.2805
 8719SOL     OW27606   2.455   3.895   5.545  0.1147  0.1527  0.6319
 8719SOL    HW127607   2.451   3.891   5.450 -3.1336 -1.2187  0.7040
 8719SOL    HW227608   2.472   3.804   5.572 -0.2518  0.2906  1.3628
 8720SOL     OW27609   3.113   4.822   1.282 -0.5109 -0.8960  0.0123
 8720SOL    HW127610   3.048   4.801   1.215 -1.0933 -0.5694  0.4606
 8720SOL    HW227611   3.191   4.848   1.232 -0.6848 -1.3956 -0.5331
 8721SOL     OW27612   6.520   5.814   3.448  0.1999  0.5066 -0.1001
 8721SOL    HW127613   6.441   5.798   3.500  0.5870  0.2817  0.4270
 8721SOL    HW227614   6.581   5.746   3.475  0.3033  0.1868 -1.0895
 8722SOL     OW27615   5.718   3.597   0.948  0.5648  0.1800  0.3570
 8722SOL    HW127616   5.626   3.589   0.924  0.4728 -0.0920  0.7860
 8722SOL    HW227617   5.739   3.514   0.992  1.4805 -0.4705 -1.2426
 8723SOL     OW27618   5.332   6.054   0.597 -0.3036 -0.1307  0.4410
 8723SOL    HW127619   5.368   6.010   0.674  0.1555 -0.2338  0.1646
 8723SOL    HW227620   5.408   6.080   0.546 -0.6038  0.1079  0.1127
 8724SOL     OW27621   5.316   1.406   6.472 -0.1759 -0.1851  0.0779
 8724SOL    HW127622   5.342   1.399   6.380 -2.2487  1.5777 -0.7265
 8724SOL    HW227623   5.380   1.466   6.510  0.2270 -0.2932 -0.4167
 8725SOL     OW27624   4.111   5.630   3.438  0.1263  0.3879 -0.4784
 8725SOL    HW127625   4.138   5.654   3.349  1.2410 -3.1066 -1.2432
 8725SOL    HW227626   4.137   5.539   3.447 -1.8815 -0.0225  2.7424
 8726SOL     OW27627   2.927   3.683   0.537 -0.0952  0.2230  0.1279
 8726SOL    HW127628   2.986   3.753   0.509  1.4423 -0.4964  1.3797
 8726SOL    HW227629   2.860   3.679   0.469  1.3992  0.9774 -1.4778
 8727SOL     OW27630   4.792   4.261   5.058 -0.0949 -0.0221  0.4149
 8727SOL    HW127631   4.817   4.173   5.029 -1.4829 -0.3173  0.0688
 8727SOL    HW227632   4.866   4.290   5.113  0.9420 -0.8844 -0.4832
 8728SOL     OW27633   1.596   3.729   4.114  0.0994 -0.0752  0.3571
 8728SOL    HW127634   1.627   3.639   4.123  1.8268  0.3916 -0.6071
 8728SOL    HW227635   1.580   3.740   4.021  0.1765  0.7132  0.4319
 8729SOL     OW27636   0.882   6.192   1.317  0.4167  0.1275 -0.0212
 8729SOL    HW127637   0.884   6.198   1.221 -1.0817  1.4198 -0.0086
 8729SOL    HW227638   0.906   6.280   1.347  1.7283 -0.4964  0.8295
 8730SOL     OW27639   1.492   3.686   6.815 -0.4110  0.1167 -0.5743
 8730SOL    HW127640   1.488   3.767   6.764 -0.2369  0.0180 -0.7466
 8730SOL    HW227641   1.466   3.712   6.903 -1.2881  0.1823 -0.8387
 8731SOL     OW27642   6.824   5.854   4.487  0.6064 -0.3480  0.4431
 8731SOL    HW127643   6.827   5.861   4.392 -1.3163  1.7800  0.4386
 8731SOL    HW227644   6.884   5.922   4.518  0.2272 -0.1209  0.7018
 8732SOL     OW27645   6.198   3.557   5.255  0.4433  0.1814  0.0855
 8732SOL    HW127646   6.199   3.462   5.257 -1.6735  0.0967 -0.2641
 8732SOL    HW227647   6.290   3.583   5.262  1.0419 -1.8653  0.2944
 8733SOL     OW27648   4.174   0.965   6.236  0.1222  0.0691  0.4353
 8733SOL    HW127649   4.098   0.988   6.290  0.0740 -1.7954  1.2320
 8733SOL    HW227650   4.142   0.969   6.146 -0.4193  1.0060  0.6531
 8734SOL     OW27651   3.646   6.502   3.727 -0.3031  0.6446 -0.5874
 8734SOL    HW127652   3.692   6.421   3.703  0.0505  0.2599  1.2807
 8734SOL    HW227653   3.554   6.481   3.719 -0.4366 -1.3521  3.6682
 8735SOL     OW27654   0.776   3.070   4.862  0.1578  0.1539  0.2599
 8735SOL    HW127655   0.828   3.040   4.787 -0.6853  1.1450 -0.7562
 8735SOL    HW227656   0.785   3.165   4.862 -1.4178  0.3373  0.1996
 8736SOL     OW27657   3.536   0.463   1.112 -0.1643 -0.3176  0.3028
 8736SOL    HW127658   3.466   0.398   1.105 -0.3008 -0.1984  0.5168
 8736SOL    HW227659   3.492   0.547   1.094 -0.4366 -0.0503  2.0444
 8737SOL     OW27660   5.364   1.817   1.830 -0.4821  0.6657  0.6984
 8737SOL    HW127661   5.446   1.853   1.797  0.0335 -0.5993  0.5547
 8737SOL    HW227662   5.296   1.858   1.776  0.0501  1.5957  0.7122
 8738SOL     OW27663   6.696   3.067   3.166  0.2089  0.0263 -0.6278
 8738SOL    HW127664   6.752   2.989   3.161  1.8554  1.1903 -1.2432
 8738SOL    HW227665   6.739   3.124   3.230 -1.1868  0.2858  0.1108
 8739SOL     OW27666   0.297   5.385   4.330  0.0058  0.0953 -0.2834
 8739SOL    HW127667   0.365   5.324   4.301  0.6514  1.5773 -2.0936
 8739SOL    HW227668   0.215   5.335   4.321  0.5933 -0.8180 -0.7541
 8740SOL     OW27669   0.945   6.517   2.469  0.1700 -0.2227 -0.0635
 8740SOL    HW127670   0.933   6.584   2.536  0.7532 -2.5828  2.6154
 8740SOL    HW227671   0.858   6.504   2.432 -0.5382  0.0819  1.4079
 8741SOL     OW27672   2.272   1.010   4.940  0.1115 -0.1918 -0.2373
 8741SOL    HW127673   2.326   1.046   5.010 -1.0738 -0.0514  0.6347
 8741SOL    HW227674   2.192   0.981   4.984  0.1318 -1.8821 -1.2505
 8742SOL     OW27675   1.094   2.570   1.804 -0.3983  0.1472 -0.0040
 8742SOL    HW127676   1.167   2.556   1.864  1.5390 -1.5400 -2.5562
 8742SOL    HW227677   1.032   2.500   1.827  0.8752 -1.2556 -0.6886
 8743SOL     OW27678   3.202   4.000   1.898  0.1096  0.1427  0.5703
 8743SOL    HW127679   3.287   3.988   1.940 -0.1216  1.2320  1.3948
 8743SOL    HW227680   3.181   3.914   1.861  1.9530  0.0874 -0.4254
 8744SOL     OW27681   3.858   2.226   6.159 -0.2626 -0.1604  0.0478
 8744SOL    HW127682   3.847   2.314   6.122  2.1457  0.2132  0.0338
 8744SOL    HW227683   3.926   2.237   6.226 -0.1493 -1.9457  0.2717
 8745SOL     OW27684   5.480   5.536   1.373  0.2040  0.1534  0.3249
 8745SOL    HW127685   5.511   5.576   1.291 -1.2832  0.1451 -0.2605
 8745SOL    HW227686   5.560   5.501   1.414  0.8707 -0.6291 -1.5449
 8746SOL     OW27687   4.949   1.681   2.844  0.0080  0.3215 -0.0903
 8746SOL    HW127688   5.000   1.622   2.788  1.0400 -0.6302  1.7432
 8746SOL    HW227689   4.921   1.626   2.917 -1.8716  1.3671  0.0231
 8747SOL     OW27690   0.930   6.753   4.523  0.1836 -0.2358 -0.2989
 8747SOL    HW127691   0.888   6.695   4.587 -0.3842  0.5514  0.0533
 8747SOL    HW227692   0.977   6.817   4.576 -1.3673  1.2204 -0.6164
 8748SOL     OW27693   2.476   1.573   4.825 -0.2908 -0.0429 -0.2827
 8748SOL    HW127694   2.444   1.651   4.780 -0.9521  0.0045  0.2523
 8748SOL    HW227695   2.431   1.575   4.910 -1.5956 -1.8565 -0.8686
 8749SOL     OW27696   2.307   6.541   6.190 -0.2171  1.2577 -0.2932
 8749SOL    HW127697   2.385   6.581   6.151 -0.1046  0.9735 -0.3585
 8749SOL    HW227698   2.233   6.589   6.152 -0.1872  0.0682 -1.9360
 8750SOL     OW27699   2.522   4.354   5.124 -0.4681  0.4947 -0.3503
 8750SOL    HW127700   2.494   4.387   5.039  3.3747  0.7654 -1.7233
 8750SOL    HW227701   2.602   4.305   5.105  0.4763  0.4425  3.0784
 8751SOL     OW27702   6.410   1.095   4.968  0.1972 -0.2344  0.0460
 8751SOL    HW127703   6.408   1.032   4.896 -1.8601 -0.3296  0.1282
 8751SOL    HW227704   6.408   1.181   4.926 -0.2633 -0.2792 -0.0250
 8752SOL     OW27705   5.162   6.609   6.816 -0.7531 -0.0602 -0.2813
 8752SOL    HW127706   5.212   6.603   6.734 -0.2063 -0.2682  0.0639
 8752SOL    HW227707   5.153   6.703   6.831  1.0608  0.0283  0.5490
 8753SOL     OW27708   0.334   6.006   4.148 -0.3207 -0.6159 -0.0366
 8753SOL    HW127709   0.340   6.096   4.181 -4.3878  1.2274 -3.3837
 8753SOL    HW227710   0.299   5.955   4.221  0.0472  0.9653  1.3036
 8754SOL     OW27711   2.212   5.248   3.170  0.4464  0.2935 -0.2443
 8754SOL    HW127712   2.200   5.264   3.077  1.0656  1.9155 -0.0714
 8754SOL    HW227713   2.211   5.153   3.178  1.7719  0.0707 -2.0988
 8755SOL     OW27714   0.449   5.063   6.627 -0.2356 -0.1078 -0.2136
 8755SOL    HW127715   0.495   4.979   6.625  0.7046  0.3016  1.8479
 8755SOL    HW227716   0.468   5.103   6.542  1.7689 -0.7388 -0.1168
 8756SOL     OW27717   4.589   5.986   6.549  0.3252 -0.3665  0.5932
 8756SOL    HW127718   4.665   5.929   6.546 -1.1088 -2.4064  0.9617
 8756SOL    HW227719   4.558   5.990   6.459  0.6834  0.2342  0.4906
 8757SOL     OW27720   3.875   5.920   2.113  0.2150  0.0273  0.0864
 8757SOL    HW127721   3.812   5.878   2.171 -0.2824 -1.1949 -1.2868
 8757SOL    HW227722   3.855   6.014   2.120 -0.7828 -0.2213  0.7715
 8758SOL     OW27723   1.904   6.321   2.377 -0.6363 -0.2213 -0.3953
 8758SOL    HW127724   1.979   6.354   2.427  0.1562 -2.2769 -0.1159
 8758SOL    HW227725   1.930   6.233   2.350 -2.1433 -0.2049 -2.1143
 8759SOL     OW27726   5.434   3.057   2.234  0.1718 -0.2958 -0.2700
 8759SOL    HW127727   5.467   3.124   2.293  1.9083 -0.0983 -1.3924
 8759SOL    HW227728   5.390   3.105   2.164 -0.3171 -0.4367 -0.0628
 8760SOL     OW27729   5.241   4.101   5.356 -0.4000  0.2456 -0.7972
 8760SOL    HW127730   5.321   4.143   5.390  0.7837 -0.6577 -2.3255
 8760SOL    HW227731   5.215   4.040   5.425 -0.0777  0.8946 -0.0731
 8761SOL     OW27732   3.034   3.670   1.567 -0.1275  0.6180  0.4508
 8761SOL    HW127733   3.023   3.672   1.472 -0.3252  1.0595  0.4834
 8761SOL    HW227734   3.025   3.577   1.589 -0.6688  0.5849  0.1113
 8762SOL     OW27735   1.926   3.332   4.125 -0.1550  0.0175  0.3263
 8762SOL    HW127736   1.998   3.395   4.123 -1.2793  1.4425  1.8905
 8762SOL    HW227737   1.958   3.261   4.181  0.1110  0.5558  0.8702
 8763SOL     OW27738   2.684   4.259   4.189  0.5789  0.0479  0.2779
 8763SOL    HW127739   2.618   4.205   4.145 -0.2380  0.8115  0.5196
 8763SOL    HW227740   2.684   4.228   4.280  0.4275  0.1560  0.3155
 8764SOL     OW27741   3.223   6.291   5.377  0.6350 -0.7266  0.4366
 8764SOL    HW127742   3.243   6.222   5.440 -0.2583 -0.2988  1.2112
 8764SOL    HW227743   3.129   6.282   5.359  0.3807  0.6174  0.9787
 8765SOL     OW27744   0.844   3.597   3.796  0.0853 -0.5452  0.1624
 8765SOL    HW127745   0.791   3.517   3.794 -2.0930  0.7812  0.6713
 8765SOL    HW227746   0.854   3.616   3.889  2.2869 -1.2043  0.1188
 8766SOL     OW27747   4.345   3.574   3.348 -0.0985 -0.1489 -0.1485
 8766SOL    HW127748   4.384   3.661   3.360 -0.8732  0.2144 -0.2627
 8766SOL    HW227749   4.384   3.542   3.267  0.5006 -0.0841  0.1059
 8767SOL     OW27750   3.680   1.628   5.231 -0.7673  0.4470  0.4216
 8767SOL    HW127751   3.708   1.699   5.289 -0.2426 -0.4321  1.2707
 8767SOL    HW227752   3.687   1.549   5.284 -1.7064 -0.2094 -0.3885
 8768SOL     OW27753   7.104   3.705   2.854 -0.1158  0.1083  0.0453
 8768SOL    HW127754   7.103   3.706   2.758  1.1336 -0.5967 -0.0003
 8768SOL    HW227755   7.150   3.785   2.878  0.0578  0.0133  0.0328
 8769SOL     OW27756   4.230   4.378   3.093 -0.3822 -0.1086  0.5758
 8769SOL    HW127757   4.229   4.331   3.177 -1.5042  0.2681  0.7910
 8769SOL    HW227758   4.146   4.423   3.090  0.6250  1.8780  0.3701
 8770SOL     OW27759   6.326   4.637   6.718  0.1315  0.2996 -0.0401
 8770SOL    HW127760   6.392   4.599   6.775  0.4034  1.6632  0.5720
 8770SOL    HW227761   6.243   4.622   6.763 -0.0718 -1.5637 -0.8867
 8771SOL     OW27762   3.290   0.413   2.748  0.1687 -0.6244  0.3208
 8771SOL    HW127763   3.228   0.394   2.818  1.2710  0.1749  1.5768
 8771SOL    HW227764   3.370   0.440   2.794  1.0932 -0.5618 -1.2496
 8772SOL     OW27765   2.358   1.508   1.795 -0.5777 -0.3517 -0.1368
 8772SOL    HW127766   2.278   1.556   1.815  0.4441  0.8043  1.3710
 8772SOL    HW227767   2.330   1.440   1.734 -2.8022 -0.3448  0.7778
 8773SOL     OW27768   7.140   0.209   4.600  0.0747 -0.3857 -0.6425
 8773SOL    HW127769   7.074   0.262   4.555 -2.6183 -0.9951  2.3005
 8773SOL    HW227770   7.091   0.136   4.638  2.4981 -1.0741  1.4264
 8774SOL     OW27771   2.298   2.140   4.313  0.0468 -0.0302 -0.7016
 8774SOL    HW127772   2.264   2.193   4.241  1.1970  0.5339 -0.8573
 8774SOL    HW227773   2.367   2.194   4.352  0.2878 -0.8444  0.0334
 8775SOL     OW27774   1.957   1.673   4.786  0.0570 -0.1271  0.1012
 8775SOL    HW127775   1.862   1.677   4.798 -0.1031 -1.9897 -0.3691
 8775SOL    HW227776   1.972   1.594   4.736  1.8557  0.3190 -0.1301
 8776SOL     OW27777   0.325   6.933   1.720  0.0428 -0.2138  0.1179
 8776SOL    HW127778   0.408   6.969   1.689  1.7350 -3.2536  0.7845
 8776SOL    HW227779   0.275   6.917   1.640  0.1032  1.5465 -0.2986
 8777SOL     OW27780   4.614   3.760   5.963  0.1294 -0.0173 -0.6629
 8777SOL    HW127781   4.678   3.735   6.029  0.2387  0.3845 -0.6167
 8777SOL    HW227782   4.582   3.676   5.928  0.4711 -0.2214 -0.4914
 8778SOL     OW27783   1.086   0.721   1.746  0.0153 -0.2587 -0.2876
 8778SOL    HW127784   1.093   0.816   1.754 -0.8368 -0.1395 -0.8043
 8778SOL    HW227785   1.159   0.696   1.689 -0.8281  0.3333 -1.6947
 8779SOL     OW27786   4.128   0.177   5.175  0.1290  0.0416  0.6898
 8779SOL    HW127787   4.213   0.214   5.150 -0.3870  0.6393 -0.2253
 8779SOL    HW227788   4.149   0.089   5.208  1.1371  0.3260  0.8446
 8780SOL     OW27789   2.108   0.745   5.266 -0.5906  0.1026 -0.0788
 8780SOL    HW127790   2.090   0.764   5.358  0.2373  1.2283 -0.1335
 8780SOL    HW227791   2.026   0.707   5.234 -1.3175  0.8558  0.8140
 8781SOL     OW27792   1.064   0.162   2.813 -0.0593 -0.1550  0.3081
 8781SOL    HW127793   1.000   0.127   2.876 -0.2356 -0.8906 -0.2693
 8781SOL    HW227794   1.012   0.208   2.748  0.0357 -0.3306  0.1063
 8782SOL     OW27795   3.117   5.037   1.439 -0.6573  0.4369 -0.4868
 8782SOL    HW127796   3.106   4.996   1.525  3.2950 -0.2349 -0.0918
 8782SOL    HW227797   3.116   4.963   1.377  1.1940  0.2727 -0.3820
 8783SOL     OW27798   3.616   5.109   3.063 -0.2490 -0.1438 -0.7216
 8783SOL    HW127799   3.603   5.061   2.980  1.0055 -1.1036 -0.3995
 8783SOL    HW227800   3.703   5.082   3.092  0.3764  2.1112 -0.3296
 8784SOL     OW27801   2.425   5.201   1.918 -0.4747 -0.1336 -0.2010
 8784SOL    HW127802   2.419   5.207   1.823 -0.1712  0.2551 -0.1994
 8784SOL    HW227803   2.487   5.130   1.934 -0.3164 -0.0175 -0.2980
 8785SOL     OW27804   4.853   4.101   4.201 -0.4728  0.6582 -0.0329
 8785SOL    HW127805   4.836   4.012   4.231  0.4667  0.4752 -0.0015
 8785SOL    HW227806   4.840   4.156   4.278 -1.2784  0.5835 -0.1070
 8786SOL     OW27807   1.004   6.262   5.885  0.5913  0.4449 -0.0817
 8786SOL    HW127808   1.006   6.180   5.933  1.0219  0.6791  0.3026
 8786SOL    HW227809   1.024   6.329   5.950  1.7434  0.7179 -0.6926
 8787SOL     OW27810   4.628   0.412   6.776  0.0288  0.0859 -0.6641
 8787SOL    HW127811   4.675   0.330   6.765 -1.7147 -1.0170 -0.2374
 8787SOL    HW227812   4.582   0.425   6.693  0.1892  0.5707 -0.6805
 8788SOL     OW27813   5.796   3.336   1.246 -0.4960  0.3658  0.0234
 8788SOL    HW127814   5.835   3.373   1.325 -1.5182 -1.0119  1.2287
 8788SOL    HW227815   5.709   3.375   1.242 -1.9869 -2.4369  1.8740
 8789SOL     OW27816   1.575   3.576   6.579 -0.0314 -0.0139 -0.4578
 8789SOL    HW127817   1.562   3.617   6.665 -0.7163 -1.1677  0.0126
 8789SOL    HW227818   1.597   3.649   6.521 -2.0572  1.1586  0.1580
 8790SOL     OW27819   5.435   4.951   3.891  0.7255  0.3041 -0.0279
 8790SOL    HW127820   5.407   5.020   3.831 -2.4131  0.8253  1.8324
 8790SOL    HW227821   5.401   4.870   3.853  2.2767  0.0533 -0.9518
 8791SOL     OW27822   1.032   5.645   5.396 -0.6967  0.3486  0.2894
 8791SOL    HW127823   1.106   5.694   5.432  0.2604 -0.9354  0.1255
 8791SOL    HW227824   0.968   5.643   5.468  0.8134 -1.3863  1.6909
 8792SOL     OW27825   2.223   5.363   5.534  0.6474  0.2967 -0.1196
 8792SOL    HW127826   2.196   5.277   5.566  0.3588  0.6604  0.6480
 8792SOL    HW227827   2.319   5.361   5.536  0.6808  0.9768  2.7457
 8793SOL     OW27828   6.198   6.436   1.888  0.2570  0.3414  0.0748
 8793SOL    HW127829   6.242   6.387   1.818 -1.1782 -1.5819  0.4644
 8793SOL    HW227830   6.114   6.462   1.850  0.4554  1.4028  0.3259
 8794SOL     OW27831   4.870   3.033   5.465 -0.8793 -0.1962 -0.4625
 8794SOL    HW127832   4.940   2.977   5.498 -1.8046 -2.6281 -2.2747
 8794SOL    HW227833   4.895   3.049   5.374 -2.5725 -1.0949 -1.1376
 8795SOL     OW27834   4.287   5.498   1.329  0.1987  0.1106  0.7148
 8795SOL    HW127835   4.239   5.464   1.254 -1.6915 -1.8468  2.6550
 8795SOL    HW227836   4.247   5.583   1.348  1.4581  1.1550 -1.0985
 8796SOL     OW27837   0.589   3.838   0.911  0.2952 -0.3033  0.0960
 8796SOL    HW127838   0.657   3.790   0.864  1.2498 -1.8138  2.7978
 8796SOL    HW227839   0.527   3.770   0.938  0.5150  0.2582  2.1318
 8797SOL     OW27840   4.011   3.701   2.636 -0.2415  0.0480  0.0305
 8797SOL    HW127841   4.095   3.673   2.600 -0.6072 -1.3097  0.1738
 8797SOL    HW227842   3.962   3.620   2.649  0.4011  0.1295  4.9899
 8798SOL     OW27843   5.246   4.597   4.034  0.0348 -0.0485  0.0774
 8798SOL    HW127844   5.319   4.630   3.982  0.6912 -0.4869  0.6843
 8798SOL    HW227845   5.247   4.502   4.019 -0.0726 -0.1175  0.4903
 8799SOL     OW27846   7.000   1.448   2.173 -0.5163 -0.2622  0.2768
 8799SOL    HW127847   6.941   1.470   2.245 -2.1252  2.9266 -1.7790
 8799SOL    HW227848   6.947   1.395   2.113  0.0067 -0.7814  0.2640
 8800SOL     OW27849   2.588   0.381   2.580 -0.0499  0.0900 -0.4471
 8800SOL    HW127850   2.597   0.313   2.513 -0.6321  0.4359 -0.8815
 8800SOL    HW227851   2.514   0.434   2.551 -1.6930 -0.9936  1.5468
 8801SOL     OW27852   2.885   1.569   1.450 -0.3335  0.0215  0.1302
 8801SOL    HW127853   2.909   1.557   1.358  0.2812  0.1389  0.2666
 8801SOL    HW227854   2.813   1.631   1.449  1.8577  2.7555 -0.0915
 8802SOL     OW27855   1.448   0.584   1.110  0.0158 -0.6164 -0.0508
 8802SOL    HW127856   1.456   0.622   1.022  0.7127 -1.2906 -0.2895
 8802SOL    HW227857   1.482   0.495   1.101  0.9038 -0.4095  1.0916
 8803SOL     OW27858   6.164   5.853   0.902  0.5013 -0.3351 -0.8049
 8803SOL    HW127859   6.072   5.873   0.884 -0.2843 -0.7110  2.2342
 8803SOL    HW227860   6.213   5.919   0.852 -1.5504  1.6070 -0.4291
 8804SOL     OW27861   4.324   5.077   2.090  0.0038  0.1427  0.4777
 8804SOL    HW127862   4.287   5.077   2.002  0.7139 -2.5530  0.0835
 8804SOL    HW227863   4.249   5.061   2.147 -0.2125  0.0236  0.1642
 8805SOL     OW27864   6.730   3.530   5.127  0.5152 -0.0512  0.2708
 8805SOL    HW127865   6.690   3.444   5.117  2.3255 -0.9476  0.2992
 8805SOL    HW227866   6.716   3.552   5.219  0.1162 -0.3463  0.2838
 8806SOL     OW27867   5.254   1.577   3.186 -0.9332  0.2184 -0.0183
 8806SOL    HW127868   5.282   1.497   3.230 -3.2731 -1.4713 -1.3484
 8806SOL    HW227869   5.234   1.638   3.257 -1.4572 -1.2627  1.1638
 8807SOL     OW27870   3.527   1.317   6.907  0.1113 -0.0701 -0.0973
 8807SOL    HW127871   3.555   1.290   6.994  1.3532  1.1724 -0.0739
 8807SOL    HW227872   3.441   1.357   6.921 -0.9838 -2.3546  0.0989
 8808SOL     OW27873   2.279   0.526   5.224 -0.4632 -0.4819 -0.4460
 8808SOL    HW127874   2.212   0.586   5.254  1.9523  2.1407  0.1356
 8808SOL    HW227875   2.288   0.545   5.130 -1.9155 -2.3715 -1.0289
 8809SOL     OW27876   2.671   5.928   7.140 -0.6963 -0.2951 -0.2902
 8809SOL    HW127877   2.705   5.936   7.051 -2.3427 -2.1492 -1.1776
 8809SOL    HW227878   2.586   5.971   7.138 -0.8651 -0.5788  0.2991
 8810SOL     OW27879   3.521   1.911   2.284  0.5807 -0.2613  0.2638
 8810SOL    HW127880   3.442   1.944   2.327  1.2141 -0.2432  1.4730
 8810SOL    HW227881   3.498   1.905   2.192 -0.5516  0.5787  0.4713
 8811SOL     OW27882   3.447   1.852   5.498 -0.4372 -0.4641 -0.8009
 8811SOL    HW127883   3.433   1.813   5.584 -0.8608  2.0229  0.3214
 8811SOL    HW227884   3.417   1.785   5.437 -0.1363 -2.2956  0.9457
 8812SOL     OW27885   7.002   3.422   6.585  0.0584 -0.1717 -0.2276
 8812SOL    HW127886   6.989   3.345   6.640  0.4748  0.1954  0.4103
 8812SOL    HW227887   6.965   3.494   6.637 -0.1278  0.0869 -0.7170
 8813SOL     OW27888   4.453   0.846   3.652 -0.0499  0.5853  0.8938
 8813SOL    HW127889   4.450   0.754   3.626  0.2051  0.7570  0.2481
 8813SOL    HW227890   4.411   0.847   3.738  0.8600 -0.2843  1.3697
 8814SOL     OW27891   0.751   5.259   6.675  0.4531  0.3643  0.1879
 8814SOL    HW127892   0.725   5.167   6.666 -1.2177  0.9459 -1.8992
 8814SOL    HW227893   0.834   5.265   6.627 -0.1179  0.1579 -0.8763
 8815SOL     OW27894   3.649   1.231   5.703 -0.3118 -0.4038  0.3234
 8815SOL    HW127895   3.600   1.149   5.706  1.0791 -1.2377  1.9203
 8815SOL    HW227896   3.654   1.260   5.794  1.7244 -0.1237  0.1688
 8816SOL     OW27897   5.862   4.033   2.103  0.1007  0.3105  0.1901
 8816SOL    HW127898   5.807   4.050   2.179 -0.1250  2.4572 -0.3819
 8816SOL    HW227899   5.800   4.012   2.033  0.3314 -2.2193  0.6491
 8817SOL     OW27900   0.334   3.374   2.544 -0.5595 -0.7084 -0.3003
 8817SOL    HW127901   0.396   3.374   2.471 -0.2566  0.7852 -0.0888
 8817SOL    HW227902   0.348   3.290   2.587  0.5873 -0.8458 -0.8814
 8818SOL     OW27903   1.850   4.748   0.251 -0.3369  0.5144 -0.1704
 8818SOL    HW127904   1.909   4.676   0.230 -0.8166  0.0427  0.0732
 8818SOL    HW227905   1.776   4.737   0.192 -0.7131  0.4261  0.3167
 8819SOL     OW27906   0.386   1.467   3.982 -0.8865  0.2040  0.3410
 8819SOL    HW127907   0.360   1.440   4.070 -3.2525 -1.6369 -0.7929
 8819SOL    HW227908   0.438   1.394   3.948  0.4222  1.1046  0.3349
 8820SOL     OW27909   0.810   2.922   3.958 -0.8183 -0.2527 -0.0952
 8820SOL    HW127910   0.790   2.973   4.037 -1.3266 -1.8455  0.8394
 8820SOL    HW227911   0.902   2.899   3.967  0.3152  2.8717 -1.9737
 8821SOL     OW27912   0.930   7.139   1.637  0.2040 -0.8472  0.1543
 8821SOL    HW127913   0.969   7.144   1.550  1.4207 -1.8004  0.6281
 8821SOL    HW227914   0.850   7.192   1.630  1.8252  1.6514 -0.6830
 8822SOL     OW27915   5.763   0.788   3.090 -0.0041  0.0562  0.2746
 8822SOL    HW127916   5.684   0.828   3.127  0.4483  1.3483 -0.1277
 8822SOL    HW227917   5.836   0.833   3.133  0.5410 -1.0204  0.5339
 8823SOL     OW27918   4.878   4.516   1.605 -0.1583 -0.1790 -0.0050
 8823SOL    HW127919   4.828   4.440   1.636  1.0297 -1.2071 -0.5534
 8823SOL    HW227920   4.874   4.578   1.678  1.6599 -2.0944  1.8436
 8824SOL     OW27921   5.160   1.737   0.351 -0.1134  0.2897 -0.1106
 8824SOL    HW127922   5.185   1.796   0.280 -0.8152  1.8491  0.8823
 8824SOL    HW227923   5.077   1.771   0.383  0.1404 -0.4102  1.4116
 8825SOL     OW27924   4.305   4.415   5.758 -0.1178 -0.1315 -0.4733
 8825SOL    HW127925   4.380   4.378   5.805 -0.3154  1.1959  0.9644
 8825SOL    HW227926   4.266   4.340   5.713  1.7828 -0.9368 -0.8967
 8826SOL     OW27927   2.171   4.783   5.712 -0.1878 -0.6260 -0.0293
 8826SOL    HW127928   2.081   4.774   5.743 -0.4275  1.6159  0.1328
 8826SOL    HW227929   2.162   4.793   5.617 -0.0463 -1.0860 -0.0910
 8827SOL     OW27930   5.750   0.125   0.235 -0.2337  0.6457  0.0107
 8827SOL    HW127931   5.678   0.148   0.176  0.8939 -1.7597 -2.5356
 8827SOL    HW227932   5.775   0.036   0.210  3.6900  1.3662  0.6255
 8828SOL     OW27933   2.587   1.976   6.469  0.0783  0.1529 -0.0019
 8828SOL    HW127934   2.527   2.042   6.502 -1.5042 -2.5382  3.1212
 8828SOL    HW227935   2.556   1.958   6.380 -0.9408  1.8754 -0.0448
 8829SOL     OW27936   2.832   5.839   1.976 -0.2801  0.5584 -0.8421
 8829SOL    HW127937   2.764   5.823   2.042  0.4730 -1.0011 -0.4072
 8829SOL    HW227938   2.788   5.824   1.893 -0.6145  0.0881 -0.5865
 8830SOL     OW27939   6.402   5.627   3.836  0.3255  0.3135  0.1795
 8830SOL    HW127940   6.385   5.542   3.795 -0.4471 -0.1545  1.4147
 8830SOL    HW227941   6.416   5.607   3.929 -0.5015  1.5792  0.6154
 8831SOL     OW27942   2.169   2.378   3.377  0.0570 -0.3168 -0.3183
 8831SOL    HW127943   2.098   2.414   3.325  0.2974 -1.5909 -1.5738
 8831SOL    HW227944   2.133   2.297   3.413 -0.1174  0.5398  1.5872
 8832SOL     OW27945   7.081   1.055   0.136  0.7008 -0.1829 -0.0956
 8832SOL    HW127946   7.001   1.020   0.177  0.3529 -0.8390 -1.2808
 8832SOL    HW227947   7.094   1.139   0.178 -0.0421 -0.5148  0.8503
 8833SOL     OW27948   1.290   5.521   2.718 -0.2257 -0.1294  0.3273
 8833SOL    HW127949   1.229   5.541   2.789  0.5760  0.6156  0.8296
 8833SOL    HW227950   1.350   5.596   2.717  0.4578 -0.6768 -0.3862
 8834SOL     OW27951   2.488   6.583   0.516  0.4781 -0.2448 -0.0861
 8834SOL    HW127952   2.527   6.654   0.465 -0.6867  0.5584  0.0982
 8834SOL    HW227953   2.561   6.523   0.534  1.0668 -0.1871 -2.0441
 8835SOL     OW27954   6.362   0.283   3.425  0.5152 -0.0844 -0.7116
 8835SOL    HW127955   6.270   0.311   3.423  0.5024 -0.0369  0.1124
 8835SOL    HW227956   6.410   0.362   3.449  0.5423 -0.5909  1.0344
 8836SOL     OW27957   5.132   0.513   0.696  0.2311 -0.1366 -0.2723
 8836SOL    HW127958   5.156   0.585   0.637  0.3488 -0.6675 -0.8859
 8836SOL    HW227959   5.187   0.440   0.668 -1.0057 -0.9274 -0.6952
 8837SOL     OW27960   5.564   0.428   3.158 -0.6715  0.0584 -0.5007
 8837SOL    HW127961   5.481   0.456   3.197  1.3330  1.9071  2.8486
 8837SOL    HW227962   5.612   0.509   3.142  1.7147 -1.0103  0.7273
 8838SOL     OW27963   2.950   3.338   4.362  0.4434 -0.7839  0.0244
 8838SOL    HW127964   2.924   3.402   4.295 -1.0047 -2.2328 -0.8789
 8838SOL    HW227965   3.023   3.291   4.322  0.3405 -0.8709 -0.0637
 8839SOL     OW27966   4.445   5.861   3.097 -0.3081  0.1112 -0.0178
 8839SOL    HW127967   4.503   5.819   3.034 -0.8183 -0.0267 -0.4074
 8839SOL    HW227968   4.426   5.793   3.161  1.4659  0.7013  1.1841
 8840SOL     OW27969   2.692   1.897   7.018 -0.2960  0.1403 -0.2652
 8840SOL    HW127970   2.667   1.914   6.928  1.1801  1.2679 -0.4835
 8840SOL    HW227971   2.763   1.832   7.012  1.3977  1.8921 -0.1169
 8841SOL     OW27972   2.856   6.796   3.092  0.4341  0.4206  0.4890
 8841SOL    HW127973   2.865   6.707   3.125  0.4144  0.9322  1.9663
 8841SOL    HW227974   2.935   6.811   3.041  0.9637 -0.0816  1.1400
 8842SOL     OW27975   4.391   6.968   3.886  0.0347  0.2207  0.3688
 8842SOL    HW127976   4.367   7.053   3.924 -1.0363  0.1047 -0.0235
 8842SOL    HW227977   4.338   6.904   3.935  0.4783 -0.1755  0.3353
 8843SOL     OW27978   2.535   6.330   3.351 -0.3071 -0.3023 -0.1769
 8843SOL    HW127979   2.528   6.424   3.365 -0.5865 -0.4871  0.9803
 8843SOL    HW227980   2.449   6.304   3.317 -0.3784 -0.2211 -0.0563
 8844SOL     OW27981   1.176   0.391   6.554  0.0782 -0.1228  0.0972
 8844SOL    HW127982   1.182   0.299   6.528  1.5569  0.7705 -3.4271
 8844SOL    HW227983   1.229   0.397   6.633 -1.2041 -2.4881  1.2380
 8845SOL     OW27984   7.142   3.010   1.816 -0.1371  0.1240  0.3012
 8845SOL    HW127985   7.167   2.921   1.840  0.8863  0.1054 -0.7384
 8845SOL    HW227986   7.143   3.058   1.898  1.4905 -0.3345  0.5762
 8846SOL     OW27987   6.706   0.688   4.224  0.0847  0.0455 -0.1726
 8846SOL    HW127988   6.664   0.676   4.139  1.3722 -1.7336 -0.6091
 8846SOL    HW227989   6.664   0.624   4.281 -0.3446  0.8176  0.4063
 8847SOL     OW27990   7.105   0.004   6.136 -0.0179 -0.2530  0.0710
 8847SOL    HW127991   7.040   0.014   6.205 -0.1596 -0.6360 -0.0031
 8847SOL    HW227992   7.067  -0.061   6.077 -0.8797  1.6310 -1.5374
 8848SOL     OW27993   6.247   2.092   4.921  0.0529 -0.5610  0.3280
 8848SOL    HW127994   6.242   2.153   4.994 -0.1386 -0.9734  0.6627
 8848SOL    HW227995   6.158   2.092   4.884  0.9315  2.5118 -2.2929
 8849SOL     OW27996   5.581   4.864   2.129 -0.1733 -0.0586 -0.6870
 8849SOL    HW127997   5.618   4.781   2.158  0.7519  1.2052  2.0303
 8849SOL    HW227998   5.500   4.873   2.179 -0.2952  0.6721 -1.0029
 8850SOL     OW27999   4.029   4.218   5.852 -0.1781 -0.0430  0.1245
 8850SOL    HW128000   4.057   4.297   5.805 -0.4740  0.6211  1.0136
 8850SOL    HW228001   4.109   4.187   5.895 -0.1529  0.0577  0.1523
 8851SOL     OW28002   0.660   4.662   2.520  0.5110 -0.1953 -0.1424
 8851SOL    HW128003   0.739   4.617   2.551  0.7783 -0.8374 -1.6621
 8851SOL    HW228004   0.690   4.749   2.496  0.5452 -0.1076  0.2040
 8852SOL     OW28005   3.923   5.283   2.889 -0.0134  0.2522 -0.5829
 8852SOL    HW128006   3.926   5.313   2.980 -1.1246  0.9607 -0.7641
 8852SOL    HW228007   3.880   5.198   2.892  0.5491 -0.0342 -0.3879
 8853SOL     OW28008   2.790   4.346   1.619 -0.2214  0.6942  0.0116
 8853SOL    HW128009   2.772   4.261   1.578 -1.0483  1.6018 -1.5797
 8853SOL    HW228010   2.703   4.381   1.640  0.0952  1.3525  0.2349
 8854SOL     OW28011   6.425   6.812   6.559  0.0103 -0.7055 -0.2889
 8854SOL    HW128012   6.454   6.824   6.468 -1.4341  2.1217 -0.4923
 8854SOL    HW228013   6.349   6.755   6.552  0.1132 -0.7906 -0.8100
 8855SOL     OW28014   1.363   1.473   1.558  0.1904  0.3315 -0.6643
 8855SOL    HW128015   1.287   1.494   1.611 -0.0322  2.1841 -1.6189
 8855SOL    HW228016   1.376   1.378   1.569 -1.9335  0.0706 -0.0989
 8856SOL     OW28017   0.326   0.373   2.478 -0.3858  0.4830  0.0266
 8856SOL    HW128018   0.354   0.358   2.568 -0.6077 -1.3554 -0.1861
 8856SOL    HW228019   0.401   0.347   2.425 -0.2327  1.6133 -0.3525
 8857SOL     OW28020   6.288   1.546   5.670  0.0561 -0.6883  0.1279
 8857SOL    HW128021   6.360   1.499   5.712  1.5751  0.8498 -0.6424
 8857SOL    HW228022   6.268   1.618   5.730 -0.5703 -0.8695  0.1411
 8858SOL     OW28023   0.164   0.316   3.292  0.0569 -0.4638  0.0515
 8858SOL    HW128024   0.135   0.382   3.229  0.0953 -2.4467 -2.1827
 8858SOL    HW228025   0.210   0.366   3.359 -1.0144  1.8821 -0.8423
 8859SOL     OW28026   1.847   1.801   6.636  0.8221  0.3638  0.3083
 8859SOL    HW128027   1.872   1.761   6.719  0.2230 -0.4094  0.1217
 8859SOL    HW228028   1.884   1.744   6.569  1.7262  1.2534  0.0288
 8860SOL     OW28029   6.630   0.342   4.613 -0.0034  0.1485 -0.4335
 8860SOL    HW128030   6.695   0.391   4.663 -1.1440 -1.2194  2.6095
 8860SOL    HW228031   6.552   0.397   4.615  0.1146  0.3580 -1.2879
 8861SOL     OW28032   0.298   4.043   5.634 -0.3612 -0.1029 -0.2493
 8861SOL    HW128033   0.231   4.089   5.686  0.3082 -0.4280  0.9521
 8861SOL    HW228034   0.303   3.956   5.674 -0.8772 -0.9065 -1.8435
 8862SOL     OW28035   0.485   4.605   6.907  0.0152  0.3063  0.0803
 8862SOL    HW128036   0.524   4.528   6.866  0.4640  0.8062 -0.4646
 8862SOL    HW228037   0.393   4.583   6.918  0.6496 -1.5147  2.7909
 8863SOL     OW28038   6.037   0.833   4.313  0.0874 -0.1471 -0.5219
 8863SOL    HW128039   6.003   0.743   4.310  1.3364 -0.7235  1.0992
 8863SOL    HW228040   6.043   0.859   4.221 -2.1089 -0.9790 -0.9690
 8864SOL     OW28041   3.683   0.504   1.865  0.0141  0.3776 -0.1740
 8864SOL    HW128042   3.598   0.541   1.841 -0.2417 -0.0138  0.1181
 8864SOL    HW228043   3.662   0.420   1.906  0.6506 -0.6743 -1.8878
 8865SOL     OW28044   1.655   6.288   4.057 -0.0798 -0.1664 -0.2109
 8865SOL    HW128045   1.705   6.269   4.136  2.9342  2.0757 -1.3981
 8865SOL    HW228046   1.679   6.219   3.996  0.0283 -0.1803 -0.1528
 8866SOL     OW28047   4.801   5.423   4.998 -0.1078  0.3624 -0.0516
 8866SOL    HW128048   4.860   5.378   4.937  0.8046  0.4416  0.7565
 8866SOL    HW228049   4.810   5.515   4.976  1.3092  0.5326  1.0983
 8867SOL     OW28050   1.737   0.693   1.555 -0.2586 -0.1715 -0.2057
 8867SOL    HW128051   1.705   0.677   1.466 -0.2427 -2.1505  0.0814
 8867SOL    HW228052   1.659   0.720   1.604 -0.3855  0.3355 -0.6740
 8868SOL     OW28053   1.880   4.178   3.702 -0.5336 -0.2600  0.1489
 8868SOL    HW128054   1.881   4.086   3.675 -1.7303 -0.0638 -0.6708
 8868SOL    HW228055   1.828   4.179   3.782 -1.6403 -0.1579 -0.5443
 8869SOL     OW28056   2.183   1.716   6.623  0.2005  0.1496 -0.0083
 8869SOL    HW128057   2.278   1.715   6.616  0.1207 -0.4614 -1.4405
 8869SOL    HW228058   2.163   1.649   6.688  0.7705  0.7930  0.8411
 8870SOL     OW28059   3.797   6.723   2.948  0.1128 -0.5867  0.6116
 8870SOL    HW128060   3.812   6.638   2.906 -2.4597 -0.4429 -0.8255
 8870SOL    HW228061   3.858   6.783   2.904  0.4724 -1.2917  0.1245
 8871SOL     OW28062   5.658   1.247   0.236 -0.0872 -0.3252  0.1255
 8871SOL    HW128063   5.575   1.281   0.267  0.7998  0.1870  2.0799
 8871SOL    HW228064   5.636   1.197   0.158 -1.9822  1.2513 -0.4241
 8872SOL     OW28065   2.825   4.202   5.651  0.0314 -0.5395 -0.6193
 8872SOL    HW128066   2.795   4.112   5.663  0.0365 -0.6688 -1.4642
 8872SOL    HW228067   2.749   4.247   5.612 -0.8320  0.4572  2.0060
 8873SOL     OW28068   3.950   5.941   2.993 -0.2691  0.4703 -0.1366
 8873SOL    HW128069   4.037   5.935   3.032  0.0242 -1.9259 -1.0049
 8873SOL    HW228070   3.894   5.971   3.065  1.0353  0.7189  0.8083
 8874SOL     OW28071   4.371   0.141   3.103  0.0306 -0.2140  0.0595
 8874SOL    HW128072   4.439   0.172   3.164 -0.5477 -0.1034  0.6606
 8874SOL    HW228073   4.296   0.198   3.121 -0.4384 -0.7744 -0.1302
 8875SOL     OW28074   4.314   0.179   6.224 -0.0912 -0.0240  0.3632
 8875SOL    HW128075   4.342   0.250   6.166 -0.9491  0.1369  0.1295
 8875SOL    HW228076   4.263   0.121   6.168 -0.2496 -0.2940  0.7840
 8876SOL     OW28077   7.134   0.670   0.973  0.1566  0.0231  0.3097
 8876SOL    HW128078   7.050   0.647   1.013 -0.5669  1.4139 -0.3318
 8876SOL    HW228079   7.199   0.649   1.039 -0.6486 -1.4988  0.6574
 8877SOL     OW28080   6.684   1.807   2.589 -0.0127  0.2881  0.6085
 8877SOL    HW128081   6.761   1.801   2.533  0.3839  0.5072  1.1265
 8877SOL    HW228082   6.626   1.737   2.557  1.1169 -1.0156  1.3137
 8878SOL     OW28083   1.615   5.463   3.804  0.1879  0.8148 -0.6082
 8878SOL    HW128084   1.669   5.446   3.881  0.8941 -0.5149 -1.3499
 8878SOL    HW228085   1.586   5.553   3.813  1.8489  1.2926  0.2459
 8879SOL     OW28086   6.191   4.523   1.101 -0.0851 -0.5645  0.1225
 8879SOL    HW128087   6.184   4.527   1.005  0.5057 -1.3019  0.0370
 8879SOL    HW228088   6.235   4.605   1.125 -2.6061  0.8980  0.0405
 8880SOL     OW28089   7.033   5.102   6.804  0.1438 -0.5424  0.1345
 8880SOL    HW128090   7.014   5.173   6.742  0.1160  1.6647  2.5225
 8880SOL    HW228091   7.124   5.115   6.828  0.0520 -1.1272  0.8355
 8881SOL     OW28092   4.547   3.132   5.839  0.0666  0.7403 -0.3288
 8881SOL    HW128093   4.548   3.063   5.905  1.0522  1.7017  0.7091
 8881SOL    HW228094   4.476   3.108   5.780  0.0835 -0.8983  0.2686
 8882SOL     OW28095   0.359   1.115   3.314  0.0583 -0.4499 -0.3113
 8882SOL    HW128096   0.324   1.189   3.264  0.3648 -0.3141 -0.3241
 8882SOL    HW228097   0.370   1.148   3.403  0.5977 -0.3510 -0.4116
 8883SOL     OW28098   5.082   2.849   0.106  0.2605  0.1042 -0.0389
 8883SOL    HW128099   5.068   2.894   0.189  1.7922 -1.6970  1.2991
 8883SOL    HW228100   4.994   2.834   0.071 -0.7182 -1.9162  2.8978
 8884SOL     OW28101   1.487   1.040   6.664  0.4734 -0.3153 -0.0917
 8884SOL    HW128102   1.540   1.079   6.734 -1.7108  0.2012  1.3523
 8884SOL    HW228103   1.517   0.949   6.660  0.7351 -0.3266  1.4295
 8885SOL     OW28104   5.638   3.765   6.777 -0.3745  0.1573  0.3939
 8885SOL    HW128105   5.645   3.680   6.733 -2.2408 -0.0871  0.4589
 8885SOL    HW228106   5.581   3.748   6.852  0.9650  1.0418  1.6714
 8886SOL     OW28107   1.411   6.174   6.866 -0.1310  0.3644 -0.5328
 8886SOL    HW128108   1.429   6.157   6.959  1.1734  1.5441 -0.5405
 8886SOL    HW228109   1.385   6.088   6.831  0.2206 -0.2878  0.7288
 8887SOL     OW28110   1.069   3.664   1.696 -0.0484 -0.0981 -0.1979
 8887SOL    HW128111   1.084   3.572   1.675  1.3175 -0.1643  0.9186
 8887SOL    HW228112   1.156   3.702   1.701 -0.5831  1.1638 -0.2242
 8888SOL     OW28113   0.489   3.046   2.159 -0.2341  0.6344 -0.0953
 8888SOL    HW128114   0.536   3.113   2.108  1.0429  1.3613  1.9407
 8888SOL    HW228115   0.553   2.977   2.172 -0.0990  1.0244  1.5434
 8889SOL     OW28116   2.826   3.387   4.611  0.1401 -0.6096  0.2575
 8889SOL    HW128117   2.882   3.451   4.654 -0.1838  0.3446 -0.7013
 8889SOL    HW228118   2.872   3.365   4.530 -1.2840  0.9821 -1.0796
 8890SOL     OW28119   1.989   6.101   3.925  0.0842  0.7994  0.0440
 8890SOL    HW128120   1.923   6.050   3.973  0.3359  0.7741  0.3724
 8890SOL    HW228121   1.958   6.102   3.835 -0.2877  0.6586  0.1675
 8891SOL     OW28122   6.156   5.987   5.116  0.7846  0.1620 -0.3802
 8891SOL    HW128123   6.122   5.980   5.205  0.7139  1.5785 -0.2597
 8891SOL    HW228124   6.085   5.955   5.060 -0.0661  1.3479 -0.0221
 8892SOL     OW28125   5.983   4.695   1.785  0.4553  0.4871  0.1048
 8892SOL    HW128126   5.911   4.746   1.821 -0.6256 -1.7559  1.3131
 8892SOL    HW228127   5.982   4.713   1.691 -0.9277  1.3868  0.2795
 8893SOL     OW28128   3.939   5.544   1.873  0.3246 -0.4040  0.2609
 8893SOL    HW128129   3.965   5.479   1.939  0.1648  0.0373  0.7684
 8893SOL    HW228130   3.970   5.508   1.790  1.4884 -0.4534  0.7015
 8894SOL     OW28131   6.514   5.216   6.761  0.1031 -0.0949  1.1801
 8894SOL    HW128132   6.480   5.132   6.790  2.5657 -1.8685 -0.7348
 8894SOL    HW228133   6.581   5.239   6.826  0.9185 -0.7213  0.5821
 8895SOL     OW28134   6.874   2.982   0.661  0.1969 -0.4794 -0.2929
 8895SOL    HW128135   6.812   2.982   0.734 -0.7741 -1.5178 -1.0769
 8895SOL    HW228136   6.960   2.989   0.702 -0.2414 -2.2581  1.0587
 8896SOL     OW28137   4.786   4.981   5.275  0.5949 -0.3008  0.0094
 8896SOL    HW128138   4.726   5.056   5.275  0.1279 -0.6401 -1.5465
 8896SOL    HW228139   4.732   4.908   5.305  0.8689 -0.1690  0.8563
 8897SOL     OW28140   5.594   5.703   2.325 -0.4877 -0.2021  0.5569
 8897SOL    HW128141   5.600   5.607   2.326 -2.1399 -0.4400 -1.9153
 8897SOL    HW228142   5.662   5.731   2.264 -0.2509  0.2034  0.9958
 8898SOL     OW28143   2.204   3.910   0.304  0.4236 -0.2446 -0.2045
 8898SOL    HW128144   2.124   3.959   0.282 -0.1407 -0.8196  0.5140
 8898SOL    HW228145   2.237   3.880   0.219  0.4471  0.8604 -0.5993
 8899SOL     OW28146   6.118   4.453   3.907 -0.2088 -0.3270 -0.3211
 8899SOL    HW128147   6.106   4.540   3.869 -0.6372 -0.6409 -0.9286
 8899SOL    HW228148   6.206   4.427   3.881  1.0045  0.9807  2.0798
 8900SOL     OW28149   3.389   4.109   1.137  0.4599  0.4138  0.2921
 8900SOL    HW128150   3.349   4.080   1.219 -3.8535  2.9866 -0.5733
 8900SOL    HW228151   3.444   4.184   1.162  1.0057 -0.2303  1.0469
 8901SOL     OW28152   1.203   2.077   5.161 -0.4867  0.7910 -0.3864
 8901SOL    HW128153   1.244   2.119   5.236 -0.2805  0.7015 -0.4490
 8901SOL    HW228154   1.113   2.109   5.162 -0.0320  2.1491 -1.1089
 8902SOL     OW28155   0.167   2.662   2.619 -0.2887 -0.2503 -0.1790
 8902SOL    HW128156   0.241   2.716   2.590 -0.2496  0.1831  0.6889
 8902SOL    HW228157   0.199   2.572   2.613 -0.5873 -0.2680 -2.3290
 8903SOL     OW28158   2.136   5.297   2.897  0.2220 -0.5527 -0.0634
 8903SOL    HW128159   2.203   5.359   2.868 -2.8371  3.4023  0.4222
 8903SOL    HW228160   2.110   5.250   2.818  1.3592  0.1027 -0.8489
 8904SOL     OW28161   6.098   6.161   3.224  0.3697  0.0830  0.0055
 8904SOL    HW128162   6.114   6.070   3.247  0.0040  0.3160  1.2693
 8904SOL    HW228163   6.179   6.207   3.247 -0.1866  0.4067  1.4182
 8905SOL     OW28164   5.770   3.672   5.324  0.1616  0.9539 -0.1129
 8905SOL    HW128165   5.836   3.740   5.336  2.3109 -0.6663 -1.9975
 8905SOL    HW228166   5.809   3.593   5.363 -1.2768  0.2305 -0.0452
 8906SOL     OW28167   3.248   4.137   0.179 -0.0312  0.2136  0.0035
 8906SOL    HW128168   3.176   4.156   0.119 -0.5976 -2.5788 -0.3358
 8906SOL    HW228169   3.240   4.203   0.248 -1.4989  1.3616 -1.1950
 8907SOL     OW28170   3.647   2.767   6.136  0.0235  0.3899 -0.1886
 8907SOL    HW128171   3.605   2.718   6.066  1.0717 -1.1549  0.2283
 8907SOL    HW228172   3.705   2.829   6.092  0.2977 -0.2221 -0.6861
 8908SOL     OW28173   1.671   2.408   1.165 -0.4752  0.2431 -0.2936
 8908SOL    HW128174   1.700   2.346   1.099 -0.6207  0.5284 -0.6323
 8908SOL    HW228175   1.633   2.354   1.234 -1.8544 -0.0093 -1.1949
 8909SOL     OW28176   2.503   2.623   4.548  0.8825  0.1171  0.0787
 8909SOL    HW128177   2.586   2.588   4.515  0.0117 -1.5588 -0.4753
 8909SOL    HW228178   2.487   2.574   4.628  1.1589  1.5606  1.0611
 8910SOL     OW28179   3.802   1.740   0.355 -0.9356  0.0994 -0.2403
 8910SOL    HW128180   3.778   1.767   0.266 -1.7655  1.6357  0.4211
 8910SOL    HW228181   3.856   1.812   0.388  1.0224 -1.3220 -0.1307
 8911SOL     OW28182   2.832   6.715   1.163 -0.0407  0.5475 -0.2807
 8911SOL    HW128183   2.916   6.711   1.117  0.6257 -0.8757  0.9378
 8911SOL    HW228184   2.786   6.636   1.137 -0.0441  0.1949  0.7252
 8912SOL     OW28185   6.683   4.232   5.858  0.4308 -0.1765 -0.1572
 8912SOL    HW128186   6.662   4.307   5.803  0.4930 -0.4545 -0.5626
 8912SOL    HW228187   6.719   4.270   5.938  1.3342  0.2003 -0.7272
 8913SOL     OW28188   1.774   0.441   6.782  0.1049  0.0134 -0.2354
 8913SOL    HW128189   1.753   0.534   6.794 -1.2322 -0.4340  1.1352
 8913SOL    HW228190   1.711   0.411   6.717 -0.0314 -0.1350 -0.0343
 8914SOL     OW28191   5.707   3.480   3.612  0.3835  0.2129 -0.2905
 8914SOL    HW128192   5.643   3.453   3.678  1.6906 -0.7477  0.6169
 8914SOL    HW228193   5.752   3.554   3.652 -0.4683  1.2291 -1.1420
 8915SOL     OW28194   3.715   1.914   3.447 -0.1123 -0.2333 -0.6019
 8915SOL    HW128195   3.660   1.902   3.370 -0.0063 -2.3934 -0.3918
 8915SOL    HW228196   3.780   1.979   3.419 -2.4030  2.0603 -0.9853
 8916SOL     OW28197   4.376   5.831   6.946  0.3364  0.4126  0.0231
 8916SOL    HW128198   4.428   5.804   6.870  0.3290  0.0809  0.1353
 8916SOL    HW228199   4.334   5.751   6.975  0.2708  0.5590  0.3255
 8917SOL     OW28200   5.829   5.062   4.501  0.4956 -0.3752 -0.1362
 8917SOL    HW128201   5.844   4.992   4.438  0.0133 -2.1013  1.5826
 8917SOL    HW228202   5.910   5.112   4.501  1.4960 -1.9433 -0.2054
 8918SOL     OW28203   5.154   2.120   0.671 -0.2142 -0.4070  0.5043
 8918SOL    HW128204   5.082   2.063   0.645 -0.9019  0.7808 -0.3004
 8918SOL    HW228205   5.141   2.134   0.765 -1.9135  0.9216  0.1289
 8919SOL     OW28206   0.809   0.492   6.950 -0.4581  0.3701 -0.1759
 8919SOL    HW128207   0.846   0.573   6.915  1.1944 -0.1139  0.3346
 8919SOL    HW228208   0.800   0.435   6.874  1.3175 -0.0176 -0.1428
 8920SOL     OW28209   5.544   4.416   5.798 -0.8019  0.3685  0.3137
 8920SOL    HW128210   5.488   4.399   5.874 -0.9660  1.1239  0.3632
 8920SOL    HW228211   5.576   4.329   5.773  1.8151  0.3539  3.1795
 8921SOL     OW28212   4.662   3.184   1.923  0.5576  0.0368  0.3360
 8921SOL    HW128213   4.707   3.101   1.907  0.3113 -0.0864  0.2784
 8921SOL    HW228214   4.616   3.203   1.841 -1.2719 -0.9494  1.0718
 8922SOL     OW28215   5.239   4.627   2.635  0.5832 -0.3592  0.5066
 8922SOL    HW128216   5.184   4.672   2.699 -0.6395 -0.3497 -0.5024
 8922SOL    HW228217   5.233   4.681   2.556  2.5473 -0.0383  0.5117
 8923SOL     OW28218   5.772   3.873   2.438  0.3203 -0.7245  0.1699
 8923SOL    HW128219   5.822   3.847   2.361  0.0131 -0.6613 -0.0507
 8923SOL    HW228220   5.682   3.885   2.406  0.4547  0.6495  0.2551
 8924SOL     OW28221   3.734   6.214   2.517  0.5380 -0.0292  0.4305
 8924SOL    HW128222   3.659   6.252   2.471 -0.2856 -0.1550  1.6040
 8924SOL    HW228223   3.696   6.177   2.597  1.9163  0.2479  1.2444
 8925SOL     OW28224   2.152   4.806   4.904 -0.3057 -0.2503 -0.3703
 8925SOL    HW128225   2.214   4.766   4.965 -0.0834 -0.9160 -1.0180
 8925SOL    HW228226   2.205   4.866   4.852 -0.4591  0.1722 -0.0434
 8926SOL     OW28227   3.017   6.487   4.163 -0.5675 -0.0960  0.2342
 8926SOL    HW128228   3.018   6.472   4.257 -1.5674  0.9092  0.4229
 8926SOL    HW228229   2.969   6.569   4.152 -1.3152 -0.6983 -1.2226
 8927SOL     OW28230   0.036   5.918   5.164 -0.3133  0.0170  0.0861
 8927SOL    HW128231  -0.038   5.917   5.105 -1.0492  0.8739  0.9569
 8927SOL    HW228232   0.106   5.960   5.114 -1.0322  1.0674 -0.0645
 8928SOL     OW28233   6.801   3.068   4.443  0.1071  0.1243  0.3112
 8928SOL    HW128234   6.872   3.075   4.508 -1.1947  1.9047  1.6471
 8928SOL    HW228235   6.722   3.093   4.491 -1.0735  0.5333 -1.7310
 8929SOL     OW28236   1.291   1.697   0.402 -0.0385 -0.2094  0.0799
 8929SOL    HW128237   1.261   1.736   0.320  0.3260 -1.7541 -0.8266
 8929SOL    HW228238   1.361   1.754   0.432  0.2792  0.0146 -1.0549
 8930SOL     OW28239   1.568   3.273   5.138 -0.1207 -0.3203  0.6256
 8930SOL    HW128240   1.614   3.262   5.221  0.5696 -2.1707  0.0465
 8930SOL    HW228241   1.488   3.320   5.161  1.4391  1.9499  1.8293
 8931SOL     OW28242   4.010   3.358   1.988 -0.0265  0.0919 -0.6385
 8931SOL    HW128243   4.077   3.383   1.924  0.5651  0.7032  0.2138
 8931SOL    HW228244   3.967   3.282   1.948  0.7497  0.0757 -1.4818
 8932SOL     OW28245   6.535   1.946   4.117  0.7034 -0.3831 -0.2928
 8932SOL    HW128246   6.577   1.918   4.198 -0.6259  0.0024  0.5577
 8932SOL    HW228247   6.492   2.028   4.139  0.1377 -0.3826 -1.3294
 8933SOL     OW28248   1.688   2.593   7.031  0.2393 -0.0862 -0.1053
 8933SOL    HW128249   1.774   2.556   7.049 -0.5698 -2.0950 -0.1395
 8933SOL    HW228250   1.638   2.577   7.112 -0.2411  0.6962 -0.2313
 8934SOL     OW28251   0.951   0.090   5.450  0.3128 -0.9755  0.5198
 8934SOL    HW128252   0.909   0.135   5.524 -0.0347 -0.5760  0.0917
 8934SOL    HW228253   0.878   0.067   5.392  0.7690  1.8571 -1.4213
 8935SOL     OW28254   6.169   3.978   2.696  0.0176  0.1261  0.2839
 8935SOL    HW128255   6.108   3.906   2.678 -0.5681  0.4901  0.7542
 8935SOL    HW228256   6.239   3.966   2.633  0.0567 -1.0082  0.5130
 8936SOL     OW28257   1.489   4.958   0.920 -0.3085  0.2249  0.5676
 8936SOL    HW128258   1.423   4.965   0.989 -1.1925 -1.2626 -0.0821
 8936SOL    HW228259   1.440   4.974   0.839  0.0290 -1.2102  0.0503
 8937SOL     OW28260   4.114   4.791   6.542 -0.1599 -0.0958  0.6603
 8937SOL    HW128261   4.104   4.746   6.626  0.2781 -0.8689  0.3158
 8937SOL    HW228262   4.108   4.884   6.563 -0.3689 -0.2946  1.5016
 8938SOL     OW28263   5.276   3.859   3.432  0.2923  0.1697 -0.0914
 8938SOL    HW128264   5.349   3.812   3.473 -1.1798 -1.8010  0.4095
 8938SOL    HW228265   5.234   3.794   3.376 -1.8202  0.8538  0.5952
 8939SOL     OW28266   0.488   5.327   1.505 -0.4261  0.2321  0.7763
 8939SOL    HW128267   0.550   5.364   1.442 -0.7258 -0.5297  0.0109
 8939SOL    HW228268   0.542   5.290   1.574  0.1319 -2.1641 -0.8254
 8940SOL     OW28269   1.688   2.907   5.035  0.4905  0.0664 -0.5270
 8940SOL    HW128270   1.758   2.842   5.040  0.6639  0.1821 -1.3370
 8940SOL    HW228271   1.660   2.905   4.943  0.1491  0.7696 -0.4440
 8941SOL     OW28272   0.530   6.484   5.855 -1.0157  0.1313 -0.1270
 8941SOL    HW128273   0.570   6.397   5.861 -0.4716  0.4633  1.8287
 8941SOL    HW228274   0.604   6.542   5.838 -1.3592  0.2530 -1.2748
 8942SOL     OW28275   1.404   1.475   0.715  0.2608 -0.2479 -0.4173
 8942SOL    HW128276   1.328   1.516   0.756  2.0355  0.4742  2.4450
 8942SOL    HW228277   1.404   1.385   0.748  0.0796 -0.5735 -1.2859
 8943SOL     OW28278   3.757   0.211   0.123 -0.5630 -0.1216  0.0154
 8943SOL    HW128279   3.797   0.129   0.152 -1.9077 -0.2742  1.5936
 8943SOL    HW228280   3.664   0.200   0.142 -0.8338  1.6198 -0.1194
 8944SOL     OW28281   5.958   1.659   5.076 -0.2252  0.6750 -0.1310
 8944SOL    HW128282   5.988   1.704   5.155  0.3336 -0.1701  0.1484
 8944SOL    HW228283   5.878   1.613   5.104 -0.1428  0.5434 -0.1127
 8945SOL     OW28284   4.825   1.127   6.645  0.1674  0.2458  0.9500
 8945SOL    HW128285   4.766   1.103   6.717 -1.3547  0.7104 -0.0991
 8945SOL    HW228286   4.912   1.124   6.684 -0.5428 -0.3696  2.5857
 8946SOL     OW28287   4.702   0.122   5.741  0.6232 -0.3844  0.3071
 8946SOL    HW128288   4.767   0.057   5.714  1.3308  0.0492  0.9051
 8946SOL    HW228289   4.619   0.075   5.741  0.7821 -0.7228 -1.3360
 8947SOL     OW28290   6.655   2.621   4.511  0.1393  0.2155 -0.4565
 8947SOL    HW128291   6.603   2.656   4.583  0.8905 -0.3188  0.3678
 8947SOL    HW228292   6.657   2.691   4.446 -1.5848  0.2501 -0.5122
 8948SOL     OW28293   3.963   4.063   1.815 -0.1500  0.6720 -0.3761
 8948SOL    HW128294   3.873   4.048   1.786 -0.3272  0.6688  0.1647
 8948SOL    HW228295   4.017   4.011   1.755 -0.6346 -0.7623  0.3799
 8949SOL     OW28296   4.640   5.313   6.764 -0.9453  0.5695 -0.0247
 8949SOL    HW128297   4.560   5.280   6.804 -0.6652  0.9677  0.8837
 8949SOL    HW228298   4.677   5.372   6.829 -0.9154  1.9134 -1.2127
 8950SOL     OW28299   2.290   3.894   3.182 -0.0593 -0.2034 -0.1392
 8950SOL    HW128300   2.249   3.980   3.184 -0.3641 -0.3571  0.6437
 8950SOL    HW228301   2.367   3.905   3.127  0.0374  0.6313  0.1512
 8951SOL     OW28302   5.830   4.282   0.637  0.2573  0.2589 -0.2045
 8951SOL    HW128303   5.865   4.331   0.562  0.0047 -1.1252 -1.2624
 8951SOL    HW228304   5.907   4.248   0.681  0.3518 -0.7773 -1.1405
 8952SOL     OW28305   6.751   5.348   3.267 -0.1551 -0.2708  0.4399
 8952SOL    HW128306   6.720   5.268   3.223  0.3305 -1.7227  2.5981
 8952SOL    HW228307   6.835   5.323   3.306  1.0248  1.9269 -0.5030
 8953SOL     OW28308   7.041   2.480   4.703  0.0546  0.1873 -0.2076
 8953SOL    HW128309   6.976   2.550   4.711 -0.0762  0.1092 -0.5586
 8953SOL    HW228310   7.030   2.427   4.782  0.2204  0.6197  0.1078
 8954SOL     OW28311   4.811   3.872   4.356  0.4067 -0.6845  0.2182
 8954SOL    HW128312   4.880   3.854   4.420 -0.9568 -1.5534  1.5200
 8954SOL    HW228313   4.736   3.899   4.410 -0.2530  0.3053 -1.1575
 8955SOL     OW28314   3.078   0.582   6.505  0.2058 -0.0429 -0.0391
 8955SOL    HW128315   2.984   0.575   6.522  0.3864  1.2517  1.8683
 8955SOL    HW228316   3.105   0.494   6.480 -1.3707 -0.6370  0.2236
 8956SOL     OW28317   0.781   5.101   2.872  0.0713 -0.2641 -0.2050
 8956SOL    HW128318   0.852   5.166   2.879  0.2792 -0.5484  0.3815
 8956SOL    HW228319   0.715   5.144   2.818 -0.0671  0.7006  0.6863
 8957SOL     OW28320   4.504   1.486   1.337 -0.8013 -0.4805 -0.5020
 8957SOL    HW128321   4.480   1.560   1.280 -0.4921  1.2570  1.4900
 8957SOL    HW228322   4.591   1.460   1.306 -0.0870  1.2688 -0.0939
 8958SOL     OW28323   3.962   6.295   1.204  0.0216 -0.2657 -0.4634
 8958SOL    HW128324   3.894   6.342   1.252 -0.6836 -1.1995 -0.5252
 8958SOL    HW228325   3.970   6.342   1.121 -2.3261 -1.5242 -1.5078
 8959SOL     OW28326   1.432   5.982   6.249 -0.7104  0.2272 -0.3857
 8959SOL    HW128327   1.497   5.923   6.288 -1.8640 -0.5722  0.4248
 8959SOL    HW228328   1.448   5.977   6.155  0.6851  0.4157 -0.1838
 8960SOL     OW28329   2.407   3.456   3.075 -0.6657  0.1161 -0.4962
 8960SOL    HW128330   2.471   3.443   3.005 -0.1927  0.6100 -0.1666
 8960SOL    HW228331   2.433   3.394   3.143 -1.3922 -0.6765 -0.9326
 8961SOL     OW28332   0.416   6.264   1.199  0.0472  0.6325 -0.6015
 8961SOL    HW128333   0.497   6.308   1.224  1.2915 -0.9618 -1.6436
 8961SOL    HW228334   0.373   6.245   1.282  0.4178  2.0531 -0.0605
 8962SOL     OW28335   0.950   3.347   6.071 -0.0245 -0.1151 -0.2751
 8962SOL    HW128336   1.036   3.327   6.108  0.5221  1.0341 -0.8771
 8962SOL    HW228337   0.950   3.301   5.986  1.3284  2.4302 -1.7707
 8963SOL     OW28338   4.533   5.477   5.135 -0.3110 -0.7793  0.6246
 8963SOL    HW128339   4.602   5.421   5.100  2.4439  2.5657  0.2228
 8963SOL    HW228340   4.541   5.470   5.230 -0.4646 -1.5650  0.5834
 8964SOL     OW28341   3.073   2.423   1.070  0.4180 -0.4057  0.2380
 8964SOL    HW128342   3.042   2.437   1.159 -0.2641 -2.5766  0.4004
 8964SOL    HW228343   2.999   2.448   1.015  0.2013 -0.7310  0.3780
 8965SOL     OW28344   3.870   3.630   0.483 -0.6406 -0.2091 -0.0425
 8965SOL    HW128345   3.926   3.556   0.506 -1.8360 -1.5159 -1.1520
 8965SOL    HW228346   3.864   3.681   0.563  1.2881 -0.5856  0.3809
 8966SOL     OW28347   1.083   5.184   4.290 -0.0321  0.5515  0.2798
 8966SOL    HW128348   1.110   5.274   4.275  0.5833  0.0953 -1.6610
 8966SOL    HW228349   1.128   5.158   4.370  0.8781  1.5319  0.1018
 8967SOL     OW28350   6.901   2.793   5.092  0.2850 -0.3999  0.0897
 8967SOL    HW128351   6.883   2.882   5.059  2.0780  0.2895  0.8377
 8967SOL    HW228352   6.816   2.761   5.121 -0.2749  1.4548  0.6659
 8968SOL     OW28353   5.882   3.221   3.953 -0.1257  0.5963  0.4030
 8968SOL    HW128354   5.796   3.256   3.930 -0.1442  0.2338 -0.1221
 8968SOL    HW228355   5.913   3.276   4.025 -0.6448  0.9493  0.3610
 8969SOL     OW28356   4.595   0.405   0.523 -0.0437  0.1472  0.3573
 8969SOL    HW128357   4.566   0.363   0.604  1.9805  0.3822  1.2557
 8969SOL    HW228358   4.644   0.337   0.477 -0.1636  0.3697 -0.1066
 8970SOL     OW28359   4.772   3.878   5.620  0.2003 -0.3069 -0.5677
 8970SOL    HW128360   4.676   3.872   5.614  0.2938 -0.6548 -2.3136
 8970SOL    HW228361   4.803   3.797   5.581  1.2101  0.1670 -0.7833
 8971SOL     OW28362   7.113   2.854   4.406  0.5619  0.2529  0.2814
 8971SOL    HW128363   7.082   2.776   4.359  0.9961  0.1251  0.1995
 8971SOL    HW228364   7.186   2.886   4.353  0.4879  0.6220  0.4025
 8972SOL     OW28365   0.041   5.273   5.576 -0.0019 -0.8190 -0.1992
 8972SOL    HW128366   0.002   5.360   5.579 -2.2873 -1.7345 -1.2157
 8972SOL    HW228367   0.077   5.260   5.664 -0.8340  0.6249  0.3927
 8973SOL     OW28368   1.956   2.405   7.038 -0.1030 -0.0298 -0.1544
 8973SOL    HW128369   1.956   2.498   7.059 -0.9594  0.4138 -1.9726
 8973SOL    HW228370   1.876   2.371   7.078  0.5962 -0.1755  1.1695
 8974SOL     OW28371   3.706   2.341   4.849 -0.1770  0.4450 -0.9753
 8974SOL    HW128372   3.628   2.327   4.903 -0.4015  0.1322 -1.3805
 8974SOL    HW228373   3.746   2.420   4.886  1.1325 -1.1858  1.4034
 8975SOL     OW28374   6.898   1.600   3.419  0.2429  0.3979  0.1065
 8975SOL    HW128375   6.928   1.584   3.329  1.5029 -2.2031  0.9096
 8975SOL    HW228376   6.813   1.558   3.424 -1.1516  2.9350 -0.5629
 8976SOL     OW28377   5.023   3.447   0.357 -0.4846 -0.1551 -0.1324
 8976SOL    HW128378   5.003   3.362   0.394  0.1661 -0.1278  0.2914
 8976SOL    HW228379   5.095   3.430   0.295 -0.3129  0.0897 -0.0032
 8977SOL     OW28380   1.198   4.373   0.528  0.0703  0.1947 -0.0889
 8977SOL    HW128381   1.109   4.357   0.559 -0.4247  0.1033 -1.5188
 8977SOL    HW228382   1.249   4.384   0.608 -1.1473 -0.1377  0.7596
 8978SOL     OW28383   3.171   6.804   5.677 -0.5948  0.2073 -0.3840
 8978SOL    HW128384   3.175   6.708   5.678  0.9270  0.2574 -0.1119
 8978SOL    HW228385   3.108   6.826   5.746  0.2153 -0.5641  0.6255
 8979SOL     OW28386   3.588   0.363   4.474 -0.0799 -0.4260 -0.1847
 8979SOL    HW128387   3.677   0.331   4.462 -0.2497 -1.6860  1.4970
 8979SOL    HW228388   3.598   0.455   4.499  0.8876 -0.9704  1.5904
 8980SOL     OW28389   0.387   6.493   6.429 -0.2014 -0.4678 -0.1832
 8980SOL    HW128390   0.472   6.450   6.430 -0.4459 -0.9645 -0.1025
 8980SOL    HW228391   0.330   6.433   6.380 -0.1300  0.5975 -1.6193
 8981SOL     OW28392   2.097   4.188   0.738  0.4660  0.2072 -0.2356
 8981SOL    HW128393   2.163   4.220   0.677  0.0476  0.9398 -0.3179
 8981SOL    HW228394   2.127   4.219   0.824  0.7019 -0.2395 -0.1577
 8982SOL     OW28395   1.050   6.998   6.621  0.5653 -0.0295 -0.4525
 8982SOL    HW128396   0.958   7.010   6.642  0.5384 -0.6855 -0.1490
 8982SOL    HW228397   1.067   6.905   6.640  1.5156  0.2971  0.3934
 8983SOL     OW28398   5.532   1.434   3.507 -0.1157 -0.3462  0.4877
 8983SOL    HW128399   5.445   1.435   3.547 -1.0739  0.4300 -1.5026
 8983SOL    HW228400   5.559   1.526   3.505  1.7859 -0.7401  3.0792
 8984SOL     OW28401   4.413   2.242   6.881  0.4000  0.3544  0.2110
 8984SOL    HW128402   4.375   2.329   6.875  0.6659  0.5966  1.6091
 8984SOL    HW228403   4.409   2.207   6.792  0.3225  1.7976 -0.3742
 8985SOL     OW28404   3.936   6.559   5.543 -0.0266  0.8644  0.3265
 8985SOL    HW128405   3.880   6.539   5.618  0.3517  1.2115  0.7080
 8985SOL    HW228406   4.000   6.621   5.577  0.3766  0.7403 -0.1954
 8986SOL     OW28407   5.292   1.450   4.949  0.1752  0.1979 -0.2631
 8986SOL    HW128408   5.313   1.366   4.989  3.1044  1.4679  1.1103
 8986SOL    HW228409   5.224   1.429   4.884  0.1784 -3.0304  0.6072
 8987SOL     OW28410   5.975   3.336   6.355  0.3318 -0.0577 -0.0492
 8987SOL    HW128411   5.937   3.363   6.271 -1.4077  0.1536  0.7681
 8987SOL    HW228412   6.056   3.292   6.331 -0.8559 -1.3406 -1.9522
 8988SOL     OW28413   1.542   0.733   0.324 -0.0671 -0.0177 -0.1778
 8988SOL    HW128414   1.536   0.804   0.388  0.9967  0.2013 -0.3044
 8988SOL    HW228415   1.459   0.738   0.276 -0.2693  0.7437  0.2247
 8989SOL     OW28416   5.436   0.689   2.378  0.2988  0.1805  0.0662
 8989SOL    HW128417   5.455   0.736   2.459  0.9976  0.1498 -0.0748
 8989SOL    HW228418   5.399   0.605   2.407 -0.6590  0.6779  0.3241
 8990SOL     OW28419   5.226   5.416   3.467  0.1051 -0.3479  0.0276
 8990SOL    HW128420   5.235   5.328   3.430 -0.8700 -0.1549 -0.6973
 8990SOL    HW228421   5.148   5.412   3.521 -0.0961  0.1323 -0.2175
 8991SOL     OW28422   5.539   5.584   0.745  0.3207 -0.2070  0.1613
 8991SOL    HW128423   5.578   5.507   0.703 -0.5223 -2.1411  2.6886
 8991SOL    HW228424   5.557   5.573   0.838 -2.6538  0.9090  0.9953
 8992SOL     OW28425   1.891   4.808   1.399  0.5833 -0.1012 -0.1733
 8992SOL    HW128426   1.893   4.712   1.404  0.2902 -0.0332  2.6425
 8992SOL    HW228427   1.949   4.828   1.326 -1.7207 -2.4559 -2.9192
 8993SOL     OW28428   2.201   0.244   3.802  0.5887 -0.7587  0.6460
 8993SOL    HW128429   2.267   0.215   3.739 -0.3752  1.6091 -1.6246
 8993SOL    HW228430   2.197   0.339   3.789 -3.5412 -0.8286  0.3432
 8994SOL     OW28431   3.872   6.254   5.892  0.2099 -0.7543 -0.0981
 8994SOL    HW128432   3.925   6.316   5.941  1.6531 -1.3910 -0.8195
 8994SOL    HW228433   3.786   6.257   5.935  0.0188  2.2002 -0.5301
 8995SOL     OW28434   0.704   0.363   0.969  0.1481 -0.2424  0.0888
 8995SOL    HW128435   0.745   0.367   0.882  2.1586  0.9678  1.0268
 8995SOL    HW228436   0.624   0.416   0.961  0.4977  0.1546 -0.9269
 8996SOL     OW28437   3.708   3.603   6.980 -0.2705 -0.2380  0.3602
 8996SOL    HW128438   3.795   3.643   6.979 -0.7213  0.8087 -1.2181
 8996SOL    HW228439   3.655   3.660   6.925 -1.8756 -1.0745  0.9646
 8997SOL     OW28440   2.354   1.183   0.458 -0.3520  0.0601 -0.1710
 8997SOL    HW128441   2.386   1.273   0.462  1.5859 -0.6223  1.5757
 8997SOL    HW228442   2.384   1.150   0.373 -1.3566  1.1158 -0.9600
 8998SOL     OW28443   1.027   2.113   4.848  0.0913  0.5870 -0.1303
 8998SOL    HW128444   1.082   2.065   4.786  0.9221  2.4213 -0.9017
 8998SOL    HW228445   0.949   2.059   4.858  1.5090 -1.5393  0.0881
 8999SOL     OW28446   5.553   6.515   2.964 -0.3585  0.1969 -0.4426
 8999SOL    HW128447   5.524   6.462   2.890 -2.1319  2.6090 -1.5900
 8999SOL    HW228448   5.505   6.479   3.039  1.5811 -2.3775 -0.2914
 9000SOL     OW28449   2.254   4.459   5.594  1.0520 -0.1779 -0.1643
 9000SOL    HW128450   2.328   4.411   5.555  1.7556 -0.2924  1.2343
 9000SOL    HW228451   2.296   4.531   5.642  0.0577  1.4542 -1.6281
 9001SOL     OW28452   5.255   2.712   5.808  0.0397 -0.1994  0.3463
 9001SOL    HW128453   5.181   2.772   5.802  0.4074  0.1414 -1.1510
 9001SOL    HW228454   5.274   2.707   5.902 -0.7402  1.0938  0.5999
 9002SOL     OW28455   5.536   0.953   3.198 -0.6900 -0.1318 -0.3934
 9002SOL    HW128456   5.526   0.936   3.105  0.4805 -4.0681  0.0330
 9002SOL    HW228457   5.456   0.918   3.238 -1.5389  2.2145  0.1126
 9003SOL     OW28458   1.762   0.978   0.432 -0.0957 -0.1537  0.4168
 9003SOL    HW128459   1.839   0.929   0.403 -0.0083  0.8399 -1.1412
 9003SOL    HW228460   1.763   0.970   0.527  0.4623 -2.3292  0.2814
 9004SOL     OW28461   3.661   0.257   2.004 -0.3863 -0.2951 -0.3256
 9004SOL    HW128462   3.734   0.215   2.048 -0.2254 -0.1894 -0.4928
 9004SOL    HW228463   3.621   0.188   1.951 -0.8952 -0.5538  0.3841
 9005SOL     OW28464   7.027   3.755   0.931 -0.3520 -0.5878  0.4880
 9005SOL    HW128465   7.085   3.830   0.939 -0.5309 -0.0530 -2.3530
 9005SOL    HW228466   7.082   3.685   0.897 -0.5819 -1.2510  1.4244
 9006SOL     OW28467   4.689   5.735   1.567 -0.6368 -0.6018 -0.2733
 9006SOL    HW128468   4.648   5.651   1.549  1.0636 -1.5204 -0.1050
 9006SOL    HW228469   4.756   5.715   1.632 -2.2285  1.4382  2.1972
 9007SOL     OW28470   6.302   0.762   1.224 -0.2129  1.4866 -0.2311
 9007SOL    HW128471   6.208   0.753   1.208 -0.4958  2.4561  0.7299
 9007SOL    HW228472   6.310   0.846   1.269  0.9736  0.8459  0.8110
 9008SOL     OW28473   3.409   6.496   2.635 -0.3891  0.3226  0.1752
 9008SOL    HW128474   3.379   6.532   2.718 -1.8605  0.6275 -0.4519
 9008SOL    HW228475   3.391   6.402   2.642  0.4721  0.1801  0.5892
 9009SOL     OW28476   6.474   1.141   6.953 -0.7002  0.4032 -0.3175
 9009SOL    HW128477   6.423   1.112   6.878  1.0450 -4.2257 -0.0657
 9009SOL    HW228478   6.561   1.160   6.917 -0.4037  0.1426  0.2377
 9010SOL     OW28479   2.410   6.658   5.204  0.4950  0.3247 -0.2890
 9010SOL    HW128480   2.506   6.659   5.201  0.6449 -1.0919  1.7502
 9010SOL    HW228481   2.386   6.582   5.151  0.7437 -1.1764  1.6401
 9011SOL     OW28482   3.842   4.314   4.995  0.0950  0.2096 -0.1429
 9011SOL    HW128483   3.856   4.345   4.906  0.4543  1.7667  0.4343
 9011SOL    HW228484   3.803   4.227   4.983 -2.2310  1.3821 -1.8413
 9012SOL     OW28485   0.996   6.003   0.667  0.3506  0.0107 -0.9640
 9012SOL    HW128486   0.948   5.920   0.667  1.1209 -0.4632 -0.2303
 9012SOL    HW228487   0.954   6.056   0.599 -1.4920 -0.1916 -0.0343
 9013SOL     OW28488   0.445   4.273   4.052 -0.4369  0.1963  0.4274
 9013SOL    HW128489   0.355   4.243   4.040 -1.0787  1.5674  1.4733
 9013SOL    HW228490   0.487   4.203   4.102 -1.7659  0.7282  2.4276
 9014SOL     OW28491   6.533   6.946   0.681 -0.4500 -0.3392 -0.0856
 9014SOL    HW128492   6.536   7.041   0.684  1.1620 -0.3814  0.4897
 9014SOL    HW228493   6.509   6.919   0.769  2.1655 -0.4894  0.6687
 9015SOL     OW28494   4.988   5.553   6.195  0.0578 -0.3132 -0.5062
 9015SOL    HW128495   4.953   5.642   6.185 -0.4597 -0.1412  2.1846
 9015SOL    HW228496   4.939   5.501   6.131 -3.0737  0.5053  1.0213
 9016SOL     OW28497   3.542   3.539   5.329  0.1551  0.9625 -0.6131
 9016SOL    HW128498   3.517   3.447   5.339 -0.4287  1.1679 -0.1231
 9016SOL    HW228499   3.481   3.573   5.264  0.3133  1.0302 -0.7267
 9017SOL     OW28500   5.960   2.297   4.107 -0.6204  0.3971 -0.5635
 9017SOL    HW128501   5.940   2.274   4.016 -2.8777 -0.3071  0.0478
 9017SOL    HW228502   5.908   2.375   4.124 -1.6380 -0.4843  0.5881
 9018SOL     OW28503   3.654   7.104   2.991 -0.2054  0.2329 -0.4335
 9018SOL    HW128504   3.685   7.055   3.066  2.1817  0.9188 -0.8926
 9018SOL    HW228505   3.626   7.037   2.928 -2.7033 -0.3388  1.1579
 9019SOL     OW28506   6.209   0.200   0.884 -0.4762 -0.0166 -0.4808
 9019SOL    HW128507   6.144   0.159   0.827 -2.0033 -0.7182  1.6553
 9019SOL    HW228508   6.268   0.246   0.824 -0.7487 -2.4060 -2.7625
 9020SOL     OW28509   3.253   0.226   1.884  0.5916  0.5587  0.0474
 9020SOL    HW128510   3.189   0.169   1.928  1.1544 -0.3437 -0.2698
 9020SOL    HW228511   3.261   0.302   1.941  0.4639 -0.0694  0.9233
 9021SOL     OW28512   5.191   6.398   0.854 -0.5529  0.1197 -0.1070
 9021SOL    HW128513   5.180   6.305   0.877 -0.1170  0.2904  0.8546
 9021SOL    HW228514   5.285   6.407   0.840 -0.7343  0.1757 -1.3368
 9022SOL     OW28515   0.681   5.647   4.706 -0.6216  0.3646 -0.0513
 9022SOL    HW128516   0.717   5.672   4.621  1.3919 -0.9721  0.3351
 9022SOL    HW228517   0.613   5.711   4.723 -0.1796  1.4528 -2.0772
 9023SOL     OW28518   0.649   1.691   3.628  0.4304  0.0646 -0.1563
 9023SOL    HW128519   0.712   1.634   3.582  0.5525  0.7627 -0.8823
 9023SOL    HW228520   0.564   1.649   3.613  0.5163  0.0695 -0.6955
 9024SOL     OW28521   4.693   6.450   6.842  0.4204 -0.1181  0.4229
 9024SOL    HW128522   4.776   6.403   6.839 -1.1038 -3.1113  0.4691
 9024SOL    HW228523   4.699   6.516   6.774  2.8751 -0.1034  0.5876
 9025SOL     OW28524   1.554   6.648   3.675 -0.7486  0.0605  0.1112
 9025SOL    HW128525   1.620   6.631   3.743 -0.3628  2.8395  0.5335
 9025SOL    HW228526   1.575   6.736   3.643 -2.4375 -0.2136 -1.8926
 9026SOL     OW28527   6.564   5.056   0.575  0.3677 -0.2783  0.6435
 9026SOL    HW128528   6.558   5.137   0.626  0.9168 -0.7412  1.4694
 9026SOL    HW228529   6.586   5.085   0.487 -0.6571  0.5467  0.6485
 9027SOL     OW28530   2.516   1.032   4.025 -0.2931  0.0346 -0.4616
 9027SOL    HW128531   2.439   1.078   3.992 -0.7176  0.2124  0.7102
 9027SOL    HW228532   2.481   0.950   4.060  0.1918 -0.3171 -0.7962
 9028SOL     OW28533   2.817   1.258   7.090 -0.1706 -0.0322  0.7342
 9028SOL    HW128534   2.752   1.260   7.020 -0.4780 -0.5863  0.9916
 9028SOL    HW228535   2.833   1.350   7.111 -1.3520  0.1066  1.1015
 9029SOL     OW28536   6.618   0.063   0.453 -0.2267 -0.0270  0.2475
 9029SOL    HW128537   6.541   0.051   0.508  0.0041  2.6140  1.2878
 9029SOL    HW228538   6.614   0.154   0.425  2.7823  0.3816  0.7930
 9030SOL     OW28539   1.538   4.314   6.666 -0.1401  0.8084  0.0397
 9030SOL    HW128540   1.606   4.346   6.608 -0.1506  1.4795  0.3908
 9030SOL    HW228541   1.582   4.250   6.723 -0.2019 -0.1016 -0.9117
 9031SOL     OW28542   0.927   3.826   7.030  0.1377 -0.2598  0.1510
 9031SOL    HW128543   0.997   3.841   6.967 -1.2827 -0.1747 -1.4634
 9031SOL    HW228544   0.943   3.737   7.063  1.4255  0.0459  0.3925
 9032SOL     OW28545   3.424   0.389   6.274  0.0283  0.0796  0.2845
 9032SOL    HW128546   3.475   0.383   6.354  0.0795  0.1175  0.2546
 9032SOL    HW228547   3.368   0.311   6.275  0.0344  0.0761  0.3526
 9033SOL     OW28548   2.780   4.613   6.767  0.6968 -0.7143 -0.1107
 9033SOL    HW128549   2.745   4.583   6.683 -2.7544  1.3359  0.4070
 9033SOL    HW228550   2.761   4.540   6.827 -1.9256 -0.1348 -0.1014
 9034SOL     OW28551   4.209   5.845   1.934 -0.1991 -0.2386 -0.6749
 9034SOL    HW128552   4.272   5.791   1.885 -0.5571 -0.4573 -0.9007
 9034SOL    HW228553   4.131   5.848   1.878 -0.8687 -1.0685  0.1708
 9035SOL     OW28554   2.395   6.316   5.555  0.1936 -0.1562 -0.4433
 9035SOL    HW128555   2.483   6.336   5.585 -0.0345 -0.2823  0.3371
 9035SOL    HW228556   2.360   6.400   5.526  0.4497 -0.0411 -0.4237
 9036SOL     OW28557   3.481   3.098   1.162  0.2877 -0.2322  0.4148
 9036SOL    HW128558   3.393   3.121   1.130 -0.8095 -2.4215  1.5794
 9036SOL    HW228559   3.524   3.060   1.085  0.2153  0.7805 -0.1477
 9037SOL     OW28560   5.146   1.114   0.967  0.1341  0.2547 -0.1917
 9037SOL    HW128561   5.185   1.078   1.047  0.1865  0.0734 -0.2997
 9037SOL    HW228562   5.147   1.042   0.905 -0.5953  0.1831 -0.1224
 9038SOL     OW28563   3.623   3.516   3.423  0.2278 -0.6319 -0.4276
 9038SOL    HW128564   3.613   3.531   3.517 -0.1627 -0.7583 -0.4471
 9038SOL    HW228565   3.646   3.602   3.387 -1.8988 -0.0488 -0.5288
 9039SOL     OW28566   6.411   2.418   1.613 -0.8504 -0.0294  0.1219
 9039SOL    HW128567   6.449   2.473   1.545  0.4989 -0.6738  0.3318
 9039SOL    HW228568   6.344   2.473   1.654 -0.1779  1.1200 -0.2884
 9040SOL     OW28569   6.556   0.798   6.533 -0.1511  0.1912  0.3056
 9040SOL    HW128570   6.631   0.856   6.538 -0.1665  0.2700 -0.2869
 9040SOL    HW228571   6.584   0.727   6.475 -0.3306 -0.0916  0.5573
 9041SOL     OW28572   6.431   7.057   6.727 -0.1074  0.1280  0.3434
 9041SOL    HW128573   6.515   7.094   6.697 -0.6362  0.6572 -0.5490
 9041SOL    HW228574   6.426   6.972   6.683 -0.3414  0.3938 -0.1575
 9042SOL     OW28575   5.454   6.877   5.734 -0.5026 -1.1058 -0.1222
 9042SOL    HW128576   5.452   6.969   5.706 -0.5177 -0.2224  2.4939
 9042SOL    HW228577   5.539   6.845   5.704 -0.4664 -0.2147 -1.0079
 9043SOL     OW28578   1.059   4.947   3.711 -0.4638  0.2099  0.0505
 9043SOL    HW128579   1.080   4.911   3.625  1.3157 -0.6513  0.7934
 9043SOL    HW228580   0.969   4.917   3.727 -1.4265  1.7053 -2.1086
 9044SOL     OW28581   1.059   3.565   1.174 -0.0088  0.3469  0.1031
 9044SOL    HW128582   0.980   3.605   1.210 -0.4808 -0.0030 -0.5276
 9044SOL    HW228583   1.087   3.626   1.105 -0.5948 -0.2700 -0.6986
 9045SOL     OW28584   4.829   2.332   4.283  0.3748 -0.1942  0.3425
 9045SOL    HW128585   4.834   2.401   4.217 -0.0457  0.5267  1.0511
 9045SOL    HW228586   4.919   2.319   4.311  0.8599 -1.9349 -1.7845
 9046SOL     OW28587   5.684   2.529   6.945 -0.3603 -0.0493 -0.4204
 9046SOL    HW128588   5.698   2.465   6.875 -0.1182 -0.7443  0.2367
 9046SOL    HW228589   5.754   2.593   6.934 -0.3183 -0.1580 -0.8058
 9047SOL     OW28590   1.546   1.345   6.655 -0.1857  0.2566  0.7257
 9047SOL    HW128591   1.637   1.337   6.626  0.0022 -0.4859  1.5005
 9047SOL    HW228592   1.537   1.436   6.681 -0.1282  0.7491 -0.8562
 9048SOL     OW28593   6.840   3.521   1.793  0.4223  0.6135  0.1543
 9048SOL    HW128594   6.771   3.466   1.829  1.1569 -0.0647  0.5587
 9048SOL    HW228595   6.813   3.610   1.816 -0.1561  0.3370  0.5881
 9049SOL     OW28596   6.569   5.746   4.638 -0.3500  0.0623  0.6703
 9049SOL    HW128597   6.662   5.766   4.645  0.1256 -1.7287  0.0036
 9049SOL    HW228598   6.554   5.732   4.545 -1.0315 -0.7793  0.8912
 9050SOL     OW28599   5.311   5.689   0.626  0.4997 -0.2937 -0.6537
 9050SOL    HW128600   5.395   5.659   0.660  0.4250  0.6655  0.4104
 9050SOL    HW228601   5.334   5.747   0.553  0.9523  2.2708  1.3865
 9051SOL     OW28602   4.970   5.619   1.493 -0.0197 -0.6757  0.3639
 9051SOL    HW128603   4.960   5.619   1.588  2.1174 -2.9133  0.7015
 9051SOL    HW228604   5.064   5.630   1.479 -0.1034 -1.7977 -1.3999
 9052SOL     OW28605   4.767   1.173   6.382 -0.6154  0.0700 -0.1653
 9052SOL    HW128606   4.674   1.152   6.392 -0.7525  0.3416 -0.7712
 9052SOL    HW228607   4.805   1.159   6.468 -1.2780  0.2469  0.1568
 9053SOL     OW28608   5.334   6.515   1.673  0.1079  0.2958 -0.1767
 9053SOL    HW128609   5.327   6.587   1.736  1.3487  0.7299 -0.5000
 9053SOL    HW228610   5.246   6.505   1.638 -0.0915  1.6433 -0.1100
 9054SOL     OW28611   1.462   5.137   5.080 -0.7597 -0.4157  0.1598
 9054SOL    HW128612   1.488   5.057   5.125 -2.1329 -2.0282 -1.7176
 9054SOL    HW228613   1.368   5.127   5.067 -0.7139  0.8321 -1.3719
 9055SOL     OW28614   1.197   1.488   0.262  0.2982  0.4031  0.2956
 9055SOL    HW128615   1.258   1.554   0.298 -0.1458 -0.0231  1.9367
 9055SOL    HW228616   1.156   1.450   0.340 -1.1388 -0.2117 -0.7360
 9056SOL     OW28617   4.883   7.100   0.741  0.0127 -0.1372  0.5672
 9056SOL    HW128618   4.883   7.009   0.770 -1.3745  0.2004  1.7705
 9056SOL    HW228619   4.829   7.100   0.662 -0.4880 -0.2860  0.9014
 9057SOL     OW28620   6.343   1.219   4.361  0.2286  0.1686 -0.1857
 9057SOL    HW128621   6.382   1.132   4.369 -1.1387 -0.5085 -0.6486
 9057SOL    HW228622   6.304   1.235   4.447  0.1481  0.1615 -0.2215
 9058SOL     OW28623   1.235   4.646   1.641 -0.2882  0.5647 -0.0484
 9058SOL    HW128624   1.205   4.685   1.558 -0.4637  0.9630  0.1977
 9058SOL    HW228625   1.326   4.674   1.649 -0.3237  0.6713 -0.0199
 9059SOL     OW28626   2.766   1.071   2.309 -0.0095  0.3565  0.2123
 9059SOL    HW128627   2.740   1.154   2.350  1.2276  0.6114  0.5256
 9059SOL    HW228628   2.700   1.056   2.242 -0.2723  1.5890  0.1683
 9060SOL     OW28629   0.778   6.359   5.719  0.2126 -0.1874 -0.0468
 9060SOL    HW128630   0.839   6.298   5.761  0.0076  0.1451  0.7501
 9060SOL    HW228631   0.803   6.445   5.753 -0.8231 -0.0731  0.4405
 9061SOL     OW28632   2.904   0.204   4.005  0.0658  0.1345 -0.0216
 9061SOL    HW128633   2.831   0.163   4.051 -0.1034 -1.6279 -1.7260
 9061SOL    HW228634   2.982   0.162   4.041  0.0665  0.2196  0.0750
 9062SOL     OW28635   1.929   6.501   0.008 -0.1130  0.0550 -0.2455
 9062SOL    HW128636   1.865   6.497  -0.063  0.7600 -1.0929 -0.9971
 9062SOL    HW228637   2.007   6.540  -0.030  1.0132 -2.2753 -0.4992
 9063SOL     OW28638   4.381   4.996   1.266 -0.0164 -0.7786  0.4995
 9063SOL    HW128639   4.321   4.931   1.229 -1.3657  0.2718  0.8129
 9063SOL    HW228640   4.382   4.977   1.360  1.4303 -1.8024  0.3285
 9064SOL     OW28641   0.197   4.141   5.900  0.1281  0.3330 -0.2235
 9064SOL    HW128642   0.230   4.192   5.975  0.6489 -1.5202  0.8765
 9064SOL    HW228643   0.125   4.089   5.936 -1.4854  1.4132 -1.7062
 9065SOL     OW28644   1.192   6.623   2.572 -0.5376  0.3195  0.1902
 9065SOL    HW128645   1.137   6.552   2.539  1.2759 -0.8386 -0.5423
 9065SOL    HW228646   1.181   6.694   2.509 -0.3557 -0.3247 -0.5846
 9066SOL     OW28647   5.269   3.877   0.907  0.4126 -0.0537  0.4766
 9066SOL    HW128648   5.240   3.894   0.817  1.4042 -1.3003 -0.1261
 9066SOL    HW228649   5.341   3.938   0.921  0.8092 -0.4289  0.1016
 9067SOL     OW28650   6.860   6.863   2.925  0.5303  0.4286  0.1701
 9067SOL    HW128651   6.772   6.888   2.898 -0.0693  0.7295  2.2367
 9067SOL    HW228652   6.893   6.939   2.974  2.0715  0.4376 -0.8152
 9068SOL     OW28653   5.243   5.370   4.260  1.1911  0.8211 -0.3276
 9068SOL    HW128654   5.160   5.390   4.216  0.4773 -2.9796 -1.0298
 9068SOL    HW228655   5.309   5.374   4.190  0.6248 -1.5811 -1.0998
 9069SOL     OW28656   1.309   5.176   0.452  0.4556  0.0429  0.0290
 9069SOL    HW128657   1.296   5.271   0.463 -1.8913 -0.3705  1.6991
 9069SOL    HW228658   1.247   5.151   0.383  0.5377 -0.3691  0.1051
 9070SOL     OW28659   1.582   4.910   2.310  0.3125  0.3708 -0.0147
 9070SOL    HW128660   1.666   4.954   2.298  0.8735 -1.1737 -2.7720
 9070SOL    HW228661   1.604   4.817   2.310 -1.3508 -0.0578 -0.2628
 9071SOL     OW28662   1.976   5.719   4.875 -0.4797  0.2690 -0.0248
 9071SOL    HW128663   2.027   5.645   4.906  0.2326  0.1080 -1.4722
 9071SOL    HW228664   1.966   5.776   4.951  0.9746 -0.1937  0.5392
 9072SOL     OW28665   0.876   4.047   5.955 -0.2867 -0.2270 -0.1109
 9072SOL    HW128666   0.792   4.091   5.969 -0.7979 -1.1688 -0.1583
 9072SOL    HW228667   0.897   4.064   5.863 -0.3810  0.0782 -0.0776
 9073SOL     OW28668   1.089   5.034   0.686  0.3349  0.2071  0.1068
 9073SOL    HW128669   1.039   5.099   0.636  1.7793 -0.4413 -2.3323
 9073SOL    HW228670   1.030   4.959   0.693 -0.1103  0.5294 -0.0978
 9074SOL     OW28671   3.439   5.299   0.376  0.2431  0.0177 -0.0385
 9074SOL    HW128672   3.421   5.221   0.429 -0.6990  0.2074 -0.0665
 9074SOL    HW228673   3.440   5.267   0.285  0.6427 -0.0936  0.0030
 9075SOL     OW28674   7.048   6.382   1.665 -0.1333 -0.3592  0.1029
 9075SOL    HW128675   6.957   6.408   1.651  0.0703  0.4305  0.1860
 9075SOL    HW228676   7.063   6.309   1.605 -1.0223 -0.9575  0.5925
 9076SOL     OW28677   0.525   6.139   0.989  0.6610 -0.5796  0.1563
 9076SOL    HW128678   0.463   6.112   0.922  1.4984  0.9723 -1.3340
 9076SOL    HW228679   0.471   6.171   1.062 -0.2680 -0.6601 -0.4885
 9077SOL     OW28680   0.691   6.028   1.413  0.0610 -0.2155  0.1928
 9077SOL    HW128681   0.669   5.987   1.329 -0.9215  0.5076  0.0755
 9077SOL    HW228682   0.755   6.096   1.390 -1.6305  1.3041 -0.3229
 9078SOL     OW28683   3.269   1.689   6.418 -0.3814 -0.3284  0.1435
 9078SOL    HW128684   3.322   1.653   6.347 -0.0577 -0.5107  0.4768
 9078SOL    HW228685   3.225   1.764   6.378  1.7579  1.1566  0.3701
 9079SOL     OW28686   3.234   6.899   6.498 -0.0589  0.6022 -0.2260
 9079SOL    HW128687   3.279   6.935   6.575 -1.1897 -0.7067  1.1154
 9079SOL    HW228688   3.298   6.840   6.459 -0.4682 -1.1374  1.5764
 9080SOL     OW28689   5.029   2.239   4.432 -0.0008 -0.2342  0.2142
 9080SOL    HW128690   4.952   2.190   4.462  0.3741  0.0001  1.6573
 9080SOL    HW228691   5.078   2.257   4.512  2.0748 -1.1953 -0.7716
 9081SOL     OW28692   1.303   4.095   0.399  0.1836 -0.5502  0.3382
 9081SOL    HW128693   1.332   4.184   0.419  0.2581 -0.0961 -1.6127
 9081SOL    HW228694   1.251   4.070   0.475 -1.2195  1.7807  0.2604
 9082SOL     OW28695   3.938   1.061   5.688  0.1850 -0.4653  0.0738
 9082SOL    HW128696   3.862   1.004   5.673 -0.5085  0.3921  0.1958
 9082SOL    HW228697   3.911   1.117   5.761 -0.1715  1.7137 -1.6451
 9083SOL     OW28698   6.370   4.702   3.718  0.7056  0.5346 -0.5152
 9083SOL    HW128699   6.425   4.642   3.768 -1.8800 -1.9994 -0.4034
 9083SOL    HW228700   6.292   4.714   3.772 -0.2183  1.4233 -1.9691
 9084SOL     OW28701   5.677   5.146   0.827  0.2467 -0.4254  0.0021
 9084SOL    HW128702   5.584   5.167   0.830  0.5433  1.1436 -0.4064
 9084SOL    HW228703   5.702   5.132   0.918 -0.0665  0.8355  0.3093
 9085SOL     OW28704   6.489   6.819   1.466  0.2623  0.1638  0.1440
 9085SOL    HW128705   6.414   6.876   1.446  1.2780  1.3218 -0.5062
 9085SOL    HW228706   6.555   6.879   1.501  1.0544 -0.7628  0.2491
 9086SOL     OW28707   5.245   3.447   3.212 -0.6513  0.8843 -0.0714
 9086SOL    HW128708   5.163   3.405   3.187  0.0255 -0.7839  0.4313
 9086SOL    HW228709   5.224   3.541   3.212 -2.2912  0.5522 -0.8562
 9087SOL     OW28710   3.717   3.592   0.808  0.2176 -0.1377  0.7550
 9087SOL    HW128711   3.653   3.620   0.742 -1.6563 -2.4480  1.4455
 9087SOL    HW228712   3.766   3.671   0.829 -1.9834  1.6265 -0.2894
 9088SOL     OW28713   1.728   5.629   0.930 -0.1349  0.2637  1.0485
 9088SOL    HW128714   1.756   5.608   1.019  1.0430  0.3726  0.7154
 9088SOL    HW228715   1.661   5.697   0.941  0.5806  0.8574  1.8179
 9089SOL     OW28716   4.309   2.014   5.684 -0.8120 -0.0153 -0.4942
 9089SOL    HW128717   4.226   1.970   5.707 -1.2406  0.9569 -0.1161
 9089SOL    HW228718   4.376   1.962   5.728 -1.3637  0.0573  0.4670
 9090SOL     OW28719   2.522   4.858   4.322 -0.6007 -0.7139 -0.1431
 9090SOL    HW128720   2.595   4.919   4.332 -1.4069  0.3299 -0.4056
 9090SOL    HW228721   2.514   4.815   4.407  0.3701 -0.9052 -0.1435
 9091SOL     OW28722   3.668   3.281   0.538 -0.0999 -0.2620  0.2512
 9091SOL    HW128723   3.743   3.294   0.481  0.0092 -1.2843  0.1450
 9091SOL    HW228724   3.702   3.295   0.626  0.0687 -0.1158  0.1627
 9092SOL     OW28725   7.091   4.147   2.344  0.1264  0.5392 -0.3264
 9092SOL    HW128726   7.019   4.148   2.280 -2.3782  0.0075  2.3013
 9092SOL    HW228727   7.127   4.235   2.340 -0.9908  0.9914 -1.3680
 9093SOL     OW28728   5.514   5.546   5.513 -0.0177  0.5479  0.1438
 9093SOL    HW128729   5.430   5.504   5.492  1.7206 -2.6534 -1.1427
 9093SOL    HW228730   5.528   5.527   5.606 -0.1685 -0.0053  0.0582
 9094SOL     OW28731   3.771   1.435   1.047  0.8020 -0.4497 -0.6399
 9094SOL    HW128732   3.720   1.435   0.966  0.3545 -1.0196 -0.3656
 9094SOL    HW228733   3.850   1.485   1.026 -0.6326  2.0267 -0.5904
 9095SOL     OW28734   6.850   0.684   7.138  0.4936  0.5852 -0.0630
 9095SOL    HW128735   6.926   0.727   7.099  1.5880  2.0398  3.2852
 9095SOL    HW228736   6.792   0.756   7.163 -1.7543 -0.4660 -1.9197
 9096SOL     OW28737   1.449   4.491   4.247  0.2417 -0.5594  0.4371
 9096SOL    HW128738   1.501   4.417   4.217 -0.5685 -1.4893  1.2379
 9096SOL    HW228739   1.388   4.508   4.175  0.6733 -0.4168  0.0998
 9097SOL     OW28740   2.791   6.987   1.799  0.1138 -0.5972  0.2356
 9097SOL    HW128741   2.807   7.056   1.863  0.4661 -0.9908  0.5811
 9097SOL    HW228742   2.733   7.027   1.734 -0.4643 -0.2762  0.9397
 9098SOL     OW28743   5.783   0.128   2.240  0.4226 -0.1819 -0.7203
 9098SOL    HW128744   5.845   0.107   2.310 -0.6767  1.6056  0.9021
 9098SOL    HW228745   5.838   0.146   2.163  1.8997  0.6583  0.4795
 9099SOL     OW28746   6.647   4.300   5.503  0.2831  0.4246 -0.1596
 9099SOL    HW128747   6.697   4.329   5.426  0.0408  1.8284  0.1855
 9099SOL    HW228748   6.600   4.222   5.472 -0.2285  1.2604 -1.6147
 9100SOL     OW28749   1.360   0.156   1.702  0.2776  0.9255  0.1892
 9100SOL    HW128750   1.322   0.168   1.615 -0.4955  1.2091  0.5587
 9100SOL    HW228751   1.452   0.133   1.685 -0.2184 -0.5055 -0.7392
 9101SOL     OW28752   0.334   1.468   4.559  0.2022  0.0789  0.4179
 9101SOL    HW128753   0.299   1.440   4.474  1.4016  0.0073 -0.0662
 9101SOL    HW228754   0.256   1.482   4.613 -0.5634 -0.3425 -0.5418
 9102SOL     OW28755   4.640   6.755   5.433 -0.1775 -0.4970 -0.2037
 9102SOL    HW128756   4.663   6.776   5.342 -0.3686 -3.0939 -0.9431
 9102SOL    HW228757   4.663   6.662   5.442 -2.1786 -0.8730  1.7149
 9103SOL     OW28758   5.267   5.425   5.520 -0.2359  0.1342  0.3596
 9103SOL    HW128759   5.193   5.486   5.519 -0.9685 -0.7423 -0.6402
 9103SOL    HW228760   5.227   5.339   5.514  0.8759 -0.3461 -0.4580
 9104SOL     OW28761   3.580   2.465   0.590 -0.3766 -0.2672  0.5889
 9104SOL    HW128762   3.645   2.528   0.558 -0.3894  0.1475  1.3456
 9104SOL    HW228763   3.534   2.512   0.660 -0.1745 -1.2249  1.3844
 9105SOL     OW28764   1.830   5.273   0.718 -0.1006 -0.0144  0.0595
 9105SOL    HW128765   1.858   5.241   0.632 -0.8526 -0.3290 -0.0691
 9105SOL    HW228766   1.771   5.206   0.751 -0.5664  0.5545  0.4040
 9106SOL     OW28767   2.537   0.064   4.903 -0.2810  0.0667 -0.6810
 9106SOL    HW128768   2.485  -0.016   4.907  0.3372 -0.3301 -0.4045
 9106SOL    HW228769   2.578   0.061   4.817 -0.9897  0.5616 -1.0438
 9107SOL     OW28770   4.920   5.193   1.181  0.4209  0.2920 -0.6880
 9107SOL    HW128771   5.007   5.162   1.207 -1.2451 -2.9213  1.7862
 9107SOL    HW228772   4.907   5.273   1.231  2.0695  1.0637 -1.4326
 9108SOL     OW28773   0.193   3.613   1.622  0.3267 -0.1865 -0.2359
 9108SOL    HW128774   0.097   3.623   1.620  0.4174  1.2896  0.8906
 9108SOL    HW228775   0.213   3.598   1.715  1.3177  1.4895 -0.1367
 9109SOL     OW28776   2.983   1.965   7.083 -0.3140 -0.9832 -0.2342
 9109SOL    HW128777   2.962   1.972   6.990 -4.0264 -0.1881  0.5072
 9109SOL    HW228778   3.041   2.040   7.100 -1.5847  0.3415 -1.4787
 9110SOL     OW28779   1.422   5.099   3.336  0.3542  0.4289 -0.8303
 9110SOL    HW128780   1.378   5.018   3.363  0.5148 -0.7717 -3.7827
 9110SOL    HW228781   1.366   5.169   3.369 -1.5761 -0.9720 -0.9608
 9111SOL     OW28782   0.245   5.612   5.411  0.2188  0.3632  0.1415
 9111SOL    HW128783   0.281   5.524   5.425  1.0349  0.4930 -1.0418
 9111SOL    HW228784   0.217   5.612   5.320 -0.5074  1.0910  0.3570
 9112SOL     OW28785   1.996   5.401   0.424 -0.1063 -0.2862  0.2364
 9112SOL    HW128786   1.928   5.468   0.430  1.0029  0.9057 -0.0811
 9112SOL    HW228787   1.950   5.323   0.391 -1.0837  0.8432 -1.1992
 9113SOL     OW28788   2.095   3.978   6.272  0.1358  0.1816 -0.9097
 9113SOL    HW128789   2.075   4.072   6.262 -0.7750  0.4549  2.4467
 9113SOL    HW228790   2.189   3.975   6.291  0.7337  0.0768 -3.4228
 9114SOL     OW28791   3.965   4.768   2.086  0.5223 -0.0834 -0.9649
 9114SOL    HW128792   4.039   4.727   2.131  0.5177 -0.8857 -1.6573
 9114SOL    HW228793   3.953   4.715   2.007  0.6366  1.3459 -1.9981
 9115SOL     OW28794   1.697   4.352   0.051  0.2297 -0.3742  0.7264
 9115SOL    HW128795   1.690   4.257   0.041  1.3245 -0.4269  0.3547
 9115SOL    HW228796   1.620   4.387   0.005  1.1262 -0.9791 -1.3788
 9116SOL     OW28797   4.759   3.115   2.450  0.1301  0.2229  0.1226
 9116SOL    HW128798   4.798   3.034   2.483  0.0086 -0.6946 -1.8442
 9116SOL    HW228799   4.755   3.103   2.355 -3.2629  1.0129  0.0388
 9117SOL     OW28800   0.299   2.269   4.125  0.3056  0.8446 -0.7648
 9117SOL    HW128801   0.368   2.335   4.114  0.2271  0.9495 -0.6252
 9117SOL    HW228802   0.307   2.240   4.216 -0.0066  1.0490 -0.6728
 9118SOL     OW28803   6.713   2.278   4.758  0.1989 -0.3791 -0.5717
 9118SOL    HW128804   6.652   2.234   4.818  1.0503  0.4200  0.9466
 9118SOL    HW228805   6.729   2.363   4.799  1.1920 -0.0021 -1.7006
 9119SOL     OW28806   6.726   2.294   1.318 -0.1780  0.3388  0.4955
 9119SOL    HW128807   6.753   2.324   1.231  0.8325  2.1735  1.3837
 9119SOL    HW228808   6.630   2.301   1.317 -0.2029  0.0809 -0.5305
 9120SOL     OW28809   2.787   0.818   3.805 -0.8718  0.5576  0.1063
 9120SOL    HW128810   2.863   0.821   3.748 -1.2069  2.4640 -0.3030
 9120SOL    HW228811   2.814   0.865   3.884 -1.0236 -0.4214  0.7563
 9121SOL     OW28812   6.507   5.538   6.453  0.3421  0.2541 -0.0825
 9121SOL    HW128813   6.601   5.539   6.468 -0.0002 -0.9268  2.7046
 9121SOL    HW228814   6.474   5.614   6.501 -0.3161 -0.6105  0.8789
 9122SOL     OW28815   2.907   4.847   7.051 -0.2952 -0.0308  0.3149
 9122SOL    HW128816   2.962   4.805   6.984 -3.0646 -1.1216 -1.4391
 9122SOL    HW228817   2.862   4.775   7.094 -1.3241  0.8889  0.8266
 9123SOL     OW28818   1.182   4.552   4.425  0.0577  0.0098  0.6776
 9123SOL    HW128819   1.178   4.457   4.435 -0.9563 -0.0626 -0.2270
 9123SOL    HW228820   1.256   4.568   4.368 -1.1120 -0.4325 -1.0281
 9124SOL     OW28821   1.707   1.971   4.643 -0.0194 -0.5033  0.2341
 9124SOL    HW128822   1.777   1.948   4.581 -1.0177 -1.2034 -0.6860
 9124SOL    HW228823   1.724   1.916   4.719  0.1857 -1.0041 -0.1613
 9125SOL     OW28824   6.354   5.311   6.558 -0.0886  0.0648 -0.6359
 9125SOL    HW128825   6.382   5.400   6.536  0.2724  0.6492  1.8413
 9125SOL    HW228826   6.434   5.269   6.591 -0.6537 -0.5032  0.0519
 9126SOL     OW28827   3.560   3.118   5.113 -0.0989  0.2736  0.7315
 9126SOL    HW128828   3.645   3.152   5.088  0.3842  0.2632  2.2721
 9126SOL    HW228829   3.579   3.035   5.156 -0.5568  1.6682  3.8408
 9127SOL     OW28830   4.516   4.684   3.789 -0.1103  0.2687 -0.2973
 9127SOL    HW128831   4.469   4.605   3.817  0.7763 -0.2635 -0.2741
 9127SOL    HW228832   4.459   4.756   3.814 -0.2340 -0.2874  1.1043
 9128SOL     OW28833   4.448   4.834   2.736 -0.8154 -0.0108 -0.0559
 9128SOL    HW128834   4.372   4.884   2.707  0.6165  1.4720 -1.4486
 9128SOL    HW228835   4.480   4.881   2.814 -1.1818 -0.5023  0.3965
 9129SOL     OW28836   5.350   3.148   3.681 -0.5574 -0.5208 -0.0926
 9129SOL    HW128837   5.436   3.186   3.695 -0.1053 -1.1909 -0.9175
 9129SOL    HW228838   5.300   3.216   3.635 -0.2966 -0.3246 -0.0861
 9130SOL     OW28839   0.643   0.349   6.137  0.7815 -0.3152 -0.2933
 9130SOL    HW128840   0.584   0.414   6.100  0.1163 -0.4073  0.5675
 9130SOL    HW228841   0.610   0.335   6.226  1.8309 -0.6979  0.0559
 9131SOL     OW28842   1.765   3.333   6.593  0.1136 -0.1154  0.0793
 9131SOL    HW128843   1.761   3.398   6.663 -0.8823  0.8471 -0.8380
 9131SOL    HW228844   1.739   3.380   6.514 -1.1892 -1.7347 -0.5276
 9132SOL     OW28845   3.453   6.543   0.015  0.5948  0.8457 -0.2616
 9132SOL    HW128846   3.501   6.567   0.094  1.4336 -2.5353  0.4100
 9132SOL    HW228847   3.407   6.462   0.038  1.4498 -0.6761 -3.3877
 9133SOL     OW28848   0.940   1.942   1.772  0.2587  0.3150  0.2408
 9133SOL    HW128849   0.872   1.882   1.803  1.9889 -1.0110  1.6895
 9133SOL    HW228850   0.906   2.029   1.794 -0.7655 -0.3301  1.3757
 9134SOL     OW28851   5.646   2.545   4.464  0.3055 -0.2759  0.5335
 9134SOL    HW128852   5.677   2.635   4.463 -2.3345  0.7372 -0.0200
 9134SOL    HW228853   5.557   2.550   4.429  0.9347 -3.4582 -2.0498
 9135SOL     OW28854   6.382   7.024   4.719  0.5280  0.4580  0.6344
 9135SOL    HW128855   6.460   6.997   4.671 -0.4754 -1.3661 -0.0606
 9135SOL    HW228856   6.395   6.991   4.808  0.2506 -0.5170  0.3272
 9136SOL     OW28857   5.936   3.820   0.354 -0.3773 -0.1329  0.1888
 9136SOL    HW128858   5.896   3.899   0.390 -2.1108  0.5004 -2.8348
 9136SOL    HW228859   5.899   3.748   0.406 -4.1115  0.5929 -1.1930
 9137SOL     OW28860   3.713   5.696   3.664 -0.5753  0.2560 -0.0491
 9137SOL    HW128861   3.777   5.700   3.735 -1.1974 -2.0701  0.7584
 9137SOL    HW228862   3.765   5.706   3.584  0.4107  1.0298  0.6622
 9138SOL     OW28863   3.289   5.417   6.753 -0.1041  0.3275 -0.6280
 9138SOL    HW128864   3.341   5.450   6.680 -0.3129  1.4840 -0.2842
 9138SOL    HW228865   3.281   5.492   6.812  1.7319 -1.0582  1.5720
 9139SOL     OW28866   0.116   2.010   6.278 -0.1327  0.2397  0.3441
 9139SOL    HW128867   0.151   2.080   6.223  0.1217  1.0558  1.5001
 9139SOL    HW228868   0.021   2.016   6.266 -0.0424 -0.1586 -0.6565
 9140SOL     OW28869   2.770   2.437   7.084  0.7312 -0.2621 -0.2214
 9140SOL    HW128870   2.737   2.455   7.172  0.2440  0.8732 -0.6155
 9140SOL    HW228871   2.737   2.350   7.064  1.4944 -0.8591  1.0108
 9141SOL     OW28872   6.383   2.675   2.514  0.3888 -0.5079  0.5936
 9141SOL    HW128873   6.372   2.755   2.463  0.1694 -0.3126  0.9429
 9141SOL    HW228874   6.465   2.637   2.483 -0.8746 -1.6367 -1.6285
 9142SOL     OW28875   6.051   4.571   6.405 -0.1069  0.1708 -0.3598
 9142SOL    HW128876   5.982   4.563   6.471  0.8579 -1.1600  0.5412
 9142SOL    HW228877   6.019   4.519   6.331 -0.5933  0.5349 -0.4065
 9143SOL     OW28878   1.191   5.629   4.077 -0.6164 -0.1020  0.3938
 9143SOL    HW128879   1.129   5.650   4.147  0.1153  0.2554  0.9575
 9143SOL    HW228880   1.218   5.539   4.096 -1.2392 -0.3916 -0.0724
 9144SOL     OW28881   0.732   5.434   2.382  0.0842 -0.1169  0.4422
 9144SOL    HW128882   0.734   5.340   2.396 -0.5702 -0.2153 -0.0473
 9144SOL    HW228883   0.742   5.445   2.287  0.2582  0.3105  0.5047
 9145SOL     OW28884   1.143   6.869   2.447  0.2572 -0.2826  0.0129
 9145SOL    HW128885   1.123   6.940   2.508  1.1762  0.1106 -0.1326
 9145SOL    HW228886   1.090   6.889   2.370 -0.4914 -0.4841  0.4603
 9146SOL     OW28887   4.662   1.128   0.999 -0.0077  0.2055  0.4941
 9146SOL    HW128888   4.741   1.167   1.035 -0.3683  0.5813  0.8899
 9146SOL    HW228889   4.647   1.174   0.917  0.5829 -0.3648  0.0554
 9147SOL     OW28890   6.661   2.753   6.422 -0.4192 -0.4203 -0.3923
 9147SOL    HW128891   6.735   2.813   6.436 -0.0828 -1.0258  0.5162
 9147SOL    HW228892   6.688   2.699   6.348 -1.7598  2.1156 -2.9248
 9148SOL     OW28893   3.096   2.323   2.575 -0.2720  0.5752 -0.4341
 9148SOL    HW128894   3.062   2.343   2.488  1.3827 -2.2100 -1.8639
 9148SOL    HW228895   3.133   2.406   2.606 -3.5738  2.3929 -0.9696
 9149SOL     OW28896   4.922   4.425   2.116 -0.0581 -0.1100  0.0140
 9149SOL    HW128897   4.992   4.472   2.071 -1.1250  0.5808 -0.9830
 9149SOL    HW228898   4.894   4.357   2.054 -0.8598  0.1935  0.0303
 9150SOL     OW28899   6.332   6.282   5.931  0.8190 -0.5237  0.1341
 9150SOL    HW128900   6.295   6.267   6.018  0.6502  1.0390  0.3577
 9150SOL    HW228901   6.392   6.355   5.942 -0.7990  1.1606 -1.4281
 9151SOL     OW28902   6.021   5.861   6.270  0.3850 -0.8562 -0.1998
 9151SOL    HW128903   5.947   5.820   6.225  0.3314 -1.1105  0.1179
 9151SOL    HW228904   5.981   5.914   6.339  0.1743  2.4620 -2.5938
 9152SOL     OW28905   4.462   4.783   1.009 -0.1026  0.9529  0.6115
 9152SOL    HW128906   4.544   4.824   0.980 -0.9179  1.9262 -0.3633
 9152SOL    HW228907   4.491   4.710   1.064  1.4809  0.3618 -0.8771
 9153SOL     OW28908   0.411   3.329   5.812  0.5910  0.0376  0.0536
 9153SOL    HW128909   0.491   3.321   5.864  1.2464  1.0277 -0.7486
 9153SOL    HW228910   0.399   3.423   5.802 -0.4009 -0.1170 -0.2587
 9154SOL     OW28911   2.658   2.189   7.103  0.3255 -0.0722 -0.1979
 9154SOL    HW128912   2.684   2.120   7.042  1.3155  0.0267  0.0902
 9154SOL    HW228913   2.623   2.142   7.178 -1.8689 -0.1812 -1.2087
 9155SOL     OW28914   5.155   5.971   3.932  0.3999 -0.2634 -0.2763
 9155SOL    HW128915   5.238   5.952   3.976 -0.3002 -0.6370  0.9184
 9155SOL    HW228916   5.116   5.885   3.915 -1.7944 -0.2074  3.2543
 9156SOL     OW28917   2.428   6.868   3.908  0.0410 -0.4446 -0.3975
 9156SOL    HW128918   2.507   6.814   3.919  0.5735  0.5092  0.6472
 9156SOL    HW228919   2.455   6.956   3.935 -1.2545  0.0040 -0.4988
 9157SOL     OW28920   1.999   1.877   1.866 -0.3649 -0.1338  0.0315
 9157SOL    HW128921   2.054   1.902   1.791  0.6193 -2.0448  0.0506
 9157SOL    HW228922   1.945   1.805   1.832 -2.8490  1.6131  0.0534
 9158SOL     OW28923   2.944   3.333   3.283 -0.5770  0.1664 -0.3744
 9158SOL    HW128924   3.036   3.329   3.257  0.8799  3.7517  3.0685
 9158SOL    HW228925   2.933   3.259   3.343  0.0217 -0.3848 -0.9345
 9159SOL     OW28926   1.257   0.667   2.675 -0.6759 -0.0199  0.3131
 9159SOL    HW128927   1.254   0.731   2.605  0.4993  0.7640  0.9572
 9159SOL    HW228928   1.252   0.719   2.755 -0.0702 -0.7468  0.8373
 9160SOL     OW28929   4.083   3.567   3.945  0.1649 -0.6829 -0.5910
 9160SOL    HW128930   4.069   3.482   3.904  2.0307 -0.6829 -1.3396
 9160SOL    HW228931   4.169   3.595   3.913  0.4817  0.5746  1.1971
 9161SOL     OW28932   6.270   1.185   1.730 -0.5018  0.2759 -0.4459
 9161SOL    HW128933   6.218   1.167   1.652  0.2603 -0.9460 -0.6957
 9161SOL    HW228934   6.332   1.253   1.703  1.9453 -2.3532 -1.9716
 9162SOL     OW28935   5.392   5.938   4.021  0.6910  0.1241 -0.3445
 9162SOL    HW128936   5.478   5.979   4.010 -0.1796  2.8963  1.9113
 9162SOL    HW228937   5.392   5.908   4.112 -0.8586  0.5716 -0.1711
 9163SOL     OW28938   3.318   3.910   2.875  0.5088  0.4150  0.1437
 9163SOL    HW128939   3.363   3.978   2.825 -0.5039  0.4660 -0.7248
 9163SOL    HW228940   3.284   3.956   2.952 -2.7335  1.6650 -1.8519
 9164SOL     OW28941   5.635   3.214   0.969 -0.1612 -0.1083 -0.2055
 9164SOL    HW128942   5.661   3.267   0.894  1.2561  2.3627  1.8698
 9164SOL    HW228943   5.561   3.261   1.007 -1.2604 -1.6551 -0.3293
 9165SOL     OW28944   5.378   0.556   0.094 -0.3040  0.2253 -0.2309
 9165SOL    HW128945   5.419   0.506   0.024 -0.6843 -0.9623  0.3683
 9165SOL    HW228946   5.447   0.613   0.127  0.2659 -0.2318 -0.6197
 9166SOL     OW28947   3.663   4.155   2.834  0.1169 -0.0315 -0.3128
 9166SOL    HW128948   3.627   4.231   2.881 -0.6286 -0.1041 -0.7597
 9166SOL    HW228949   3.659   4.084   2.897  1.1364  0.3636  0.2261
 9167SOL     OW28950   4.009   5.544   7.103  0.2925  0.4693  0.0757
 9167SOL    HW128951   3.983   5.578   7.189  0.1234 -1.9262  1.0547
 9167SOL    HW228952   3.965   5.460   7.097 -1.9377  1.6613 -3.5961
 9168SOL     OW28953   2.523   0.717   0.025 -0.7168 -0.0410  0.0455
 9168SOL    HW128954   2.558   0.629   0.014  0.4230  0.3422  0.4899
 9168SOL    HW228955   2.506   0.748  -0.064 -1.2469 -0.7536 -0.1047
 9169SOL     OW28956   2.890   4.154   2.340  0.2572 -0.1326 -0.4824
 9169SOL    HW128957   2.888   4.068   2.383 -0.5728  0.8404  1.5654
 9169SOL    HW228958   2.910   4.134   2.248 -2.9020 -2.7995 -0.7792
 9170SOL     OW28959   4.546   3.279   7.097  0.0869 -0.1662 -0.0319
 9170SOL    HW128960   4.485   3.319   7.160  1.0689 -0.1518  0.9363
 9170SOL    HW228961   4.630   3.319   7.117  0.2522  0.6665 -2.1107
 9171SOL     OW28962   1.925   6.375   6.602  0.1533  0.2507 -0.3420
 9171SOL    HW128963   1.912   6.437   6.531 -2.2141  0.9205  0.5875
 9171SOL    HW228964   1.954   6.428   6.676 -1.7220  0.3008  0.4090
 9172SOL     OW28965   2.603   1.149   3.598  0.1472 -0.1201  0.2021
 9172SOL    HW128966   2.519   1.160   3.643  1.2592  0.7885  2.1385
 9172SOL    HW228967   2.586   1.181   3.509 -2.0719 -1.8266 -0.0986
 9173SOL     OW28968   5.983   5.876   3.081 -0.0163  0.1969 -0.0159
 9173SOL    HW128969   6.041   5.851   3.152 -0.7806  0.0421  0.5679
 9173SOL    HW228970   5.963   5.794   3.036 -0.0404  0.2030 -0.0173
 9174SOL     OW28971   3.223   6.870   2.676  0.7256 -0.2977  0.1338
 9174SOL    HW128972   3.315   6.843   2.673  0.0664 -2.6357 -2.0309
 9174SOL    HW228973   3.216   6.935   2.606  0.5337 -0.9292 -0.4444
 9175SOL     OW28974   6.579   3.419   1.924  0.1997 -0.2569  0.2814
 9175SOL    HW128975   6.500   3.455   1.884 -0.4864  1.0213  2.6134
 9175SOL    HW228976   6.595   3.337   1.877  0.3043  1.7000 -3.4786
 9176SOL     OW28977   2.341   5.579   4.540 -0.2591 -0.2198  0.4429
 9176SOL    HW128978   2.353   5.669   4.510  3.2333 -1.3656 -2.3272
 9176SOL    HW228979   2.377   5.578   4.629  1.8174  0.8035 -0.3059
 9177SOL     OW28980   6.411   0.484   1.110  0.5671  0.3895  0.1487
 9177SOL    HW128981   6.349   0.544   1.151  1.2179  0.0178  1.7698
 9177SOL    HW228982   6.380   0.397   1.135 -0.5564 -0.0300 -2.4424
 9178SOL     OW28983   0.518   0.934   0.252  0.4928 -0.0451 -0.1618
 9178SOL    HW128984   0.425   0.930   0.229  0.6753 -0.6396 -0.8304
 9178SOL    HW228985   0.563   0.897   0.176  1.3620  1.3100 -0.3425
 9179SOL     OW28986   2.910   0.728   1.729  0.2048  0.1308  0.2421
 9179SOL    HW128987   2.969   0.662   1.692 -0.7855 -1.8948  2.0862
 9179SOL    HW228988   2.961   0.768   1.800  0.1478 -0.0220  0.3700
 9180SOL     OW28989   4.975   1.404   0.488 -1.1574  0.7004 -0.1190
 9180SOL    HW128990   4.882   1.394   0.467 -1.1181 -1.2497  0.4796
 9180SOL    HW228991   4.996   1.327   0.540  0.9041  0.9127 -0.5697
 9181SOL     OW28992   2.188   3.807   5.841  0.1279 -0.5067 -0.6892
 9181SOL    HW128993   2.138   3.789   5.920  0.3045  1.7541 -0.0003
 9181SOL    HW228994   2.125   3.844   5.780  0.2648 -1.0072 -1.1469
 9182SOL     OW28995   2.402   0.167   1.398 -0.3486 -0.2655 -0.2599
 9182SOL    HW128996   2.460   0.152   1.473 -1.3536 -1.1184  0.3677
 9182SOL    HW228997   2.461   0.165   1.322  0.4123 -1.4469  0.3233
 9183SOL     OW28998   1.332   0.760   4.628 -0.5364  0.0433  0.6862
 9183SOL    HW128999   1.425   0.742   4.641 -0.3799 -0.0080 -0.4002
 9183SOL    HW229000   1.289   0.678   4.651 -0.2722 -0.0812  0.7466
 9184SOL     OW29001   1.849   4.396   4.599 -0.0246  0.2565  0.4669
 9184SOL    HW129002   1.933   4.390   4.645  0.4752 -0.6668 -0.5115
 9184SOL    HW229003   1.848   4.484   4.562  0.9368 -0.0326 -0.2758
 9185SOL     OW29004   2.129   2.947   2.184 -0.0081  0.1198 -0.2379
 9185SOL    HW129005   2.213   2.971   2.144  0.4661  1.5347  1.4599
 9185SOL    HW229006   2.151   2.879   2.247 -0.3649 -0.4232 -0.6914
 9186SOL     OW29007   2.724   6.237   0.106  0.1350  0.3344 -0.6699
 9186SOL    HW129008   2.790   6.211   0.042 -1.0123 -0.8172 -1.4247
 9186SOL    HW229009   2.705   6.329   0.085 -0.9972 -0.3113 -2.7171
 9187SOL     OW29010   6.450   6.267   0.088 -0.1476  0.0616 -1.0703
 9187SOL    HW129011   6.401   6.202   0.139 -1.1082  0.4159 -1.5068
 9187SOL    HW229012   6.459   6.227   0.001  0.9871 -0.3015 -0.8045
 9188SOL     OW29013   5.004   3.324   3.100  0.2739 -0.2616  0.1293
 9188SOL    HW129014   4.991   3.306   3.193  3.3910 -0.2263  0.6759
 9188SOL    HW229015   4.915   3.337   3.065 -1.1352 -2.3824  2.6047
 9189SOL     OW29016   6.873   4.258   1.070 -0.1315 -0.1666  0.2501
 9189SOL    HW129017   6.848   4.350   1.056 -2.0474 -0.9668 -2.5836
 9189SOL    HW229018   6.968   4.260   1.074 -0.1165  1.9551  0.2129
 9190SOL     OW29019   6.803   2.702   3.914 -0.0849 -0.4777 -0.1385
 9190SOL    HW129020   6.859   2.755   3.858 -0.1528  0.2874  0.5036
 9190SOL    HW229021   6.733   2.762   3.942  0.5679 -0.4861  1.6821
 9191SOL     OW29022   3.067   2.686   2.373  0.0580  0.1309  0.1395
 9191SOL    HW129023   3.072   2.592   2.358  0.1927  0.1282  0.1981
 9191SOL    HW229024   3.106   2.725   2.294 -0.4806  0.1523 -0.1216
 9192SOL     OW29025   4.668   2.233   1.425  0.7847  0.1499 -0.2567
 9192SOL    HW129026   4.609   2.245   1.351 -0.1256  0.8511  0.5597
 9192SOL    HW229027   4.617   2.259   1.502  1.4821 -1.1706  0.7037
 9193SOL     OW29028   3.432   5.657   5.473  0.4992  0.1031 -0.0838
 9193SOL    HW129029   3.488   5.593   5.427 -1.2407 -1.3476 -0.3080
 9193SOL    HW229030   3.424   5.729   5.411  2.3681  0.5187  0.0949
 9194SOL     OW29031   2.794   1.242   1.578 -0.1831  0.0330 -0.1868
 9194SOL    HW129032   2.786   1.172   1.643  2.5157  1.5228  1.9840
 9194SOL    HW229033   2.757   1.319   1.621 -0.0288  0.6576 -1.1520
 9195SOL     OW29034   6.532   4.513   6.841 -0.1798 -0.1220 -0.1189
 9195SOL    HW129035   6.553   4.551   6.926 -2.1316 -1.0180  0.8354
 9195SOL    HW229036   6.564   4.423   6.847 -1.2320 -0.4940  0.0852
 9196SOL     OW29037   7.027   5.552   3.297 -1.1357 -0.4029  0.0187
 9196SOL    HW129038   7.005   5.542   3.390  0.6348 -0.8688  0.4205
 9196SOL    HW229039   7.031   5.462   3.263 -1.2876 -0.2563 -0.4003
 9197SOL     OW29040   0.812   2.754   0.145  0.3788 -0.3058 -0.2389
 9197SOL    HW129041   0.794   2.717   0.232 -3.0304  1.4818 -0.0311
 9197SOL    HW229042   0.803   2.679   0.086  0.2769 -1.0990  0.7499
 9198SOL     OW29043   2.903   5.651   6.606  0.3434  0.2914 -0.0943
 9198SOL    HW129044   2.917   5.604   6.688 -3.5088 -0.2113  0.4274
 9198SOL    HW229045   2.923   5.587   6.538  0.9472 -0.1489  0.4896
 9199SOL     OW29046   2.367   3.672   4.237 -0.3798 -0.3120 -0.0518
 9199SOL    HW129047   2.384   3.744   4.299  1.1430  0.4606 -1.2767
 9199SOL    HW229048   2.410   3.596   4.276  0.4516  0.1355 -0.0638
 9200SOL     OW29049   1.746   3.298   1.570  0.2623 -0.3101  0.2120
 9200SOL    HW129050   1.776   3.384   1.538  0.7088 -0.0294  1.3427
 9200SOL    HW229051   1.821   3.262   1.616 -0.1524 -1.0051  0.3563
 9201SOL     OW29052   6.707   6.949   6.212  0.1902  0.5750 -0.2488
 9201SOL    HW129053   6.761   6.900   6.274 -0.3997  0.2813  0.0434
 9201SOL    HW229054   6.763   7.021   6.184  0.1789  1.2425  1.3108
 9202SOL     OW29055   6.741   4.458   4.410 -0.3219 -0.4399 -0.6890
 9202SOL    HW129056   6.835   4.440   4.411  0.6639  3.6529  1.1211
 9202SOL    HW229057   6.708   4.413   4.488  0.5752 -0.1592 -0.1350
 9203SOL     OW29058   3.865   6.797   6.673 -0.0653  0.1654 -0.6013
 9203SOL    HW129059   3.803   6.791   6.746  1.3207  0.2988  0.6447
 9203SOL    HW229060   3.912   6.714   6.674  0.7578  0.6106 -0.5634
 9204SOL     OW29061   5.669   3.195   3.519  0.1788  0.3046  0.5214
 9204SOL    HW129062   5.643   3.287   3.511  0.1872  0.2229 -0.5859
 9204SOL    HW229063   5.662   3.160   3.430  2.4231 -0.1809  0.4765
 9205SOL     OW29064   6.083   4.014   5.911 -0.3442  0.0157  0.3078
 9205SOL    HW129065   6.094   3.959   5.989  0.3877  0.6104  0.6365
 9205SOL    HW229066   6.049   4.097   5.945 -1.0054 -0.0634 -0.1343
 9206SOL     OW29067   4.420   6.813   0.284  0.0958  0.2053  0.2193
 9206SOL    HW129068   4.458   6.728   0.264  1.3461  0.9119 -0.5625
 9206SOL    HW229069   4.487   6.858   0.335  0.5536  1.6424 -1.5456
 9207SOL     OW29070   2.874   2.583   2.727 -0.0409  0.0599 -0.1888
 9207SOL    HW129071   2.937   2.654   2.729 -0.5251  0.4850  0.0904
 9207SOL    HW229072   2.836   2.588   2.639 -0.5682  0.5893  0.0619
 9208SOL     OW29073   0.658   3.007   4.386  0.3360  0.2410  0.3575
 9208SOL    HW129074   0.746   2.994   4.350  0.5655 -0.2026  1.0671
 9208SOL    HW229075   0.664   3.091   4.431  0.6052 -0.1112  0.9973
 9209SOL     OW29076   1.358   5.032   4.826  0.0695  0.4250  0.8783
 9209SOL    HW129077   1.374   5.080   4.745  2.0385 -0.4990  0.6448
 9209SOL    HW229078   1.297   5.087   4.875 -0.2172  1.5947 -0.7042
 9210SOL     OW29079   1.497   0.312   3.611 -0.4193 -0.6099  0.7742
 9210SOL    HW129080   1.499   0.366   3.690  1.9791 -1.5977  1.4695
 9210SOL    HW229081   1.478   0.224   3.643  0.7185 -1.0450  0.2821
 9211SOL     OW29082   5.207   1.799   3.343  0.0637  0.0429 -0.6266
 9211SOL    HW129083   5.281   1.846   3.380 -0.6044 -0.9119  2.1196
 9211SOL    HW229084   5.130   1.840   3.381 -0.6569 -1.0832 -0.8228
 9212SOL     OW29085   3.354   1.667   1.807  0.3870 -0.2148 -0.7343
 9212SOL    HW129086   3.289   1.700   1.869  1.8960 -0.2962  0.9779
 9212SOL    HW229087   3.353   1.730   1.735 -0.8381  0.3283 -0.2759
 9213SOL     OW29088   6.459   1.770   2.324 -0.5324  0.4288  0.1370
 9213SOL    HW129089   6.472   1.727   2.409  0.2553  1.0911  0.3564
 9213SOL    HW229090   6.426   1.701   2.267 -0.0352 -0.2771  0.6959
 9214SOL     OW29091   6.937   3.174   4.013  1.0912 -0.2436 -0.9321
 9214SOL    HW129092   6.892   3.217   3.940 -0.1224 -0.4152 -0.3006
 9214SOL    HW229093   6.882   3.191   4.089  1.9902 -0.6527 -0.1730
 9215SOL     OW29094   3.618   2.307   1.361  0.2550  0.1622 -0.3653
 9215SOL    HW129095   3.660   2.290   1.446  0.3894 -0.8189 -0.6073
 9215SOL    HW229096   3.571   2.226   1.341 -1.7330  1.2019 -0.1485
 9216SOL     OW29097   6.119   7.127   4.698  0.7344 -0.2647 -0.1730
 9216SOL    HW129098   6.108   7.190   4.769 -0.3843  0.7422 -1.2106
 9216SOL    HW229099   6.206   7.089   4.713  1.2145  1.1407  0.7700
 9217SOL     OW29100   1.888   6.873   3.757  0.3316  0.3209  0.1100
 9217SOL    HW129101   1.945   6.881   3.833  0.0867 -0.4928  0.3949
 9217SOL    HW229102   1.931   6.809   3.701 -0.7760 -1.0921  0.8059
 9218SOL     OW29103   1.053   2.384   3.074 -0.1304  0.1087  0.2289
 9218SOL    HW129104   1.001   2.305   3.086 -3.0885  1.6721 -1.3872
 9218SOL    HW229105   1.101   2.369   2.993  0.8870 -0.7373  0.9493
 9219SOL     OW29106   4.567   1.256   0.151  0.0409  0.0162 -0.0394
 9219SOL    HW129107   4.505   1.223   0.086 -0.5660  0.0716  0.5022
 9219SOL    HW229108   4.637   1.190   0.152  0.5941  0.5345 -1.4934
 9220SOL     OW29109   0.943   1.316   2.318 -0.2604 -0.0463  0.5752
 9220SOL    HW129110   0.950   1.364   2.400 -0.0578 -0.4368  0.7915
 9220SOL    HW229111   0.858   1.340   2.282 -0.9747 -0.9626  1.5969
 9221SOL     OW29112   4.698   2.851   5.584  0.1236  0.1326  0.1342
 9221SOL    HW129113   4.624   2.826   5.528  0.4993 -0.9653  0.1121
 9221SOL    HW229114   4.737   2.926   5.538 -0.1958 -0.0936 -0.5281
 9222SOL     OW29115   2.184   1.911   2.159  0.3262  0.0497  0.2178
 9222SOL    HW129116   2.117   1.978   2.144  0.7248  0.2600 -0.6546
 9222SOL    HW229117   2.168   1.881   2.249 -0.9632  0.0652  0.0160
 9223SOL     OW29118   2.662   3.716   3.183 -0.0849 -0.0250  0.0524
 9223SOL    HW129119   2.690   3.627   3.159  1.0862  0.7075 -1.4129
 9223SOL    HW229120   2.625   3.752   3.103  0.2421  1.1152  0.3950
 9224SOL     OW29121   3.992   2.934   0.353  0.7771 -0.5737  0.1162
 9224SOL    HW129122   3.962   2.985   0.428 -0.2696 -1.8033  0.5772
 9224SOL    HW229123   3.966   2.985   0.277  1.9146  0.7246  0.5492
 9225SOL     OW29124   1.693   4.718   6.471  0.5813 -0.3837 -0.0563
 9225SOL    HW129125   1.698   4.678   6.384  1.0813  1.1608 -0.7749
 9225SOL    HW229126   1.694   4.812   6.454  1.3215 -0.0426  1.6471
 9226SOL     OW29127   3.407   5.903   5.350 -0.2162  0.3159 -0.3521
 9226SOL    HW129128   3.426   5.995   5.369 -1.6314  0.3664  1.0312
 9226SOL    HW229129   3.312   5.901   5.337 -0.1641 -0.9274 -0.5937
 9227SOL     OW29130   1.924   2.142   3.795  0.1916  0.2822  0.4278
 9227SOL    HW129131   1.887   2.202   3.859  1.1904  0.1761  1.1244
 9227SOL    HW229132   1.856   2.133   3.728 -1.6114 -1.0137  2.3225
 9228SOL     OW29133   0.551   4.159   0.327  0.5400 -0.1847 -0.0496
 9228SOL    HW129134   0.517   4.246   0.348 -0.5209 -0.3431 -0.9874
 9228SOL    HW229135   0.481   4.099   0.353  0.0451 -0.5290 -2.0259
 9229SOL     OW29136   6.378   0.608   5.141  0.3808 -0.3831  0.3970
 9229SOL    HW129137   6.366   0.698   5.111  0.6093  0.0547  1.5656
 9229SOL    HW229138   6.329   0.603   5.223  0.4545 -1.3000  0.4018
 9230SOL     OW29139   5.134   2.573   2.354  0.1250 -0.4634 -0.1905
 9230SOL    HW129140   5.159   2.556   2.445 -0.7101 -0.4817  0.0397
 9230SOL    HW229141   5.216   2.563   2.305  0.5165 -0.7940  0.5101
 9231SOL     OW29142   3.560   6.198   2.237 -0.3309  0.1826  0.1133
 9231SOL    HW129143   3.525   6.253   2.167 -1.1150 -1.4189 -0.8116
 9231SOL    HW229144   3.495   6.206   2.307 -0.4612  0.3901 -0.0280
 9232SOL     OW29145   1.254   6.918   1.928  0.0419  0.9056  0.1075
 9232SOL    HW129146   1.268   6.888   1.839  0.8207 -0.6207  0.7030
 9232SOL    HW229147   1.240   7.012   1.920 -2.8534  0.4341 -1.9153
 9233SOL     OW29148   4.507   5.890   6.316  0.1137 -0.7090  0.2196
 9233SOL    HW129149   4.567   5.842   6.260  1.2586 -0.3457  1.0909
 9233SOL    HW229150   4.455   5.822   6.360 -1.4889 -0.9724 -1.9456
 9234SOL     OW29151   5.898   0.896   1.897  0.1228  0.2126 -0.0490
 9234SOL    HW129152   5.981   0.938   1.916 -1.2476  2.4589  1.3201
 9234SOL    HW229153   5.831   0.956   1.929 -2.1040 -1.0732 -1.8859
 9235SOL     OW29154   1.195   1.570   4.611 -0.1614  0.2418 -0.1921
 9235SOL    HW129155   1.228   1.659   4.616  1.3158 -0.3067  0.4314
 9235SOL    HW229156   1.193   1.550   4.517  1.1415  0.3630 -0.2554
 9236SOL     OW29157   5.660   3.490   6.220 -0.5625  0.6581  0.1016
 9236SOL    HW129158   5.615   3.525   6.297  0.4151  0.1617  0.9215
 9236SOL    HW229159   5.598   3.504   6.148 -2.5304 -1.0151  1.3469
 9237SOL     OW29160   3.531   5.128   2.056 -0.0209 -0.1824  0.1150
 9237SOL    HW129161   3.485   5.142   1.973  1.5292 -2.3588 -1.2357
 9237SOL    HW229162   3.490   5.190   2.117 -3.6054 -0.8939 -1.3143
 9238SOL     OW29163   6.729   2.954   2.305 -0.0312  0.4199  0.0229
 9238SOL    HW129164   6.731   3.037   2.353  3.3821  0.7397 -0.3949
 9238SOL    HW229165   6.765   2.890   2.365 -0.5419 -0.2977 -0.4155
 9239SOL     OW29166   1.207   7.101   5.412 -0.1030 -0.3325 -0.2925
 9239SOL    HW129167   1.222   7.039   5.483  0.5208 -1.6377 -1.5167
 9239SOL    HW229168   1.130   7.151   5.440  0.4336 -0.4691  1.5093
 9240SOL     OW29169   0.973   2.293   6.532 -0.3192 -0.5630 -0.3741
 9240SOL    HW129170   0.979   2.221   6.595 -2.0908  0.8399  1.5148
 9240SOL    HW229171   1.042   2.354   6.559 -1.0971  0.0514  0.2966
 9241SOL     OW29172   4.398   4.033   0.383 -0.4832  0.2712  0.0181
 9241SOL    HW129173   4.342   4.003   0.455 -0.9265 -1.0572 -0.8443
 9241SOL    HW229174   4.428   4.120   0.411 -0.4732 -0.2889  1.8856
 9242SOL     OW29175   4.675   0.675   5.240  0.3860  0.2600 -0.3509
 9242SOL    HW129176   4.725   0.750   5.208  1.1327  1.0829  2.4638
 9242SOL    HW229177   4.740   0.620   5.284 -0.4410 -1.1966 -0.8764
 9243SOL     OW29178   6.365   1.637   6.414  0.1851  0.6384 -0.2627
 9243SOL    HW129179   6.393   1.723   6.444 -0.4045  0.9275 -0.5226
 9243SOL    HW229180   6.269   1.642   6.412  0.1499  0.0373 -0.4515
 9244SOL     OW29181   1.207   4.250   2.030 -0.1015  0.2505  0.8654
 9244SOL    HW129182   1.232   4.342   2.025 -0.8038  0.3931 -0.6951
 9244SOL    HW229183   1.255   4.216   2.105  1.9565  1.3467  0.1186
 9245SOL     OW29184   4.467   3.596   1.518  0.5316  0.4418 -0.0628
 9245SOL    HW129185   4.465   3.524   1.456  0.5712  0.7055 -0.3736
 9245SOL    HW229186   4.375   3.617   1.534  0.3949 -1.3406  2.0035
 9246SOL     OW29187   1.499   2.792   5.194 -0.0064 -0.2865 -0.2074
 9246SOL    HW129188   1.469   2.740   5.119  0.9807 -1.0934 -0.0587
 9246SOL    HW229189   1.572   2.843   5.159 -0.3616  0.3058 -0.1052
 9247SOL     OW29190   2.638   0.360   3.259 -0.3974 -0.4166 -0.2847
 9247SOL    HW129191   2.551   0.318   3.263  0.0769 -1.5489 -1.3082
 9247SOL    HW229192   2.659   0.362   3.166  1.3210 -1.5378  0.0387
 9248SOL     OW29193   5.671   6.568   0.808 -0.0012  0.0224  0.3191
 9248SOL    HW129194   5.713   6.523   0.881  1.9012 -0.2583 -0.8679
 9248SOL    HW229195   5.695   6.660   0.819  1.0128 -0.1442 -0.3822
 9249SOL     OW29196   1.704   1.798   4.849 -0.2154 -0.3024  0.6045
 9249SOL    HW129197   1.716   1.802   4.944  0.1615 -0.5382  0.5695
 9249SOL    HW229198   1.610   1.805   4.836 -0.5401 -2.8485  1.1484
 9250SOL     OW29199   6.459   4.972   3.837  0.0553 -0.1813  0.0065
 9250SOL    HW129200   6.540   4.997   3.793  1.0605 -0.7171  1.4805
 9250SOL    HW229201   6.445   4.880   3.813 -0.4667  0.0699 -0.7125
 9251SOL     OW29202   1.758   6.879   7.038  0.7069 -0.1926 -0.4353
 9251SOL    HW129203   1.690   6.819   7.009  0.7626 -0.3657 -0.2016
 9251SOL    HW229204   1.738   6.961   6.992 -0.0123 -0.0590  0.1036
 9252SOL     OW29205   0.587   3.798   6.341  0.4005 -0.1917 -0.3520
 9252SOL    HW129206   0.560   3.709   6.367  1.0229  0.1467  1.5942
 9252SOL    HW229207   0.677   3.787   6.309  0.2018 -0.3626 -0.8699
 9253SOL     OW29208   0.420   6.068   4.687  0.0776 -1.0175 -0.1681
 9253SOL    HW129209   0.340   6.119   4.679  0.3725 -0.8171 -2.1220
 9253SOL    HW229210   0.487   6.120   4.643  1.1758 -1.4557  0.9309
 9254SOL     OW29211   2.944   5.974   6.761  0.1504  0.4049  0.5852
 9254SOL    HW129212   3.002   5.898   6.756  0.8167  0.9195  0.3183
 9254SOL    HW229213   2.991   6.043   6.713 -0.8120  0.7492  0.1295
 9255SOL     OW29214   6.438   0.691   6.791 -0.4340 -0.2115 -0.5219
 9255SOL    HW129215   6.409   0.782   6.783 -0.9242 -0.3098  0.1028
 9255SOL    HW229216   6.515   0.686   6.734  0.3575  0.9361  0.3742
 9256SOL     OW29217   3.466   2.545   0.324 -0.1432 -0.5832 -0.3438
 9256SOL    HW129218   3.494   2.467   0.275 -1.3324 -0.6755 -0.9178
 9256SOL    HW229219   3.546   2.577   0.367  0.6195 -1.3712 -1.1410
 9257SOL     OW29220   3.375   0.513   5.477  0.1851  0.2739  0.3428
 9257SOL    HW129221   3.413   0.579   5.536 -0.7281  0.0920  1.1591
 9257SOL    HW229222   3.372   0.433   5.530  1.8219 -0.6198 -0.8156
 9258SOL     OW29223   1.008   2.705   5.423 -0.0531  0.1590 -0.7164
 9258SOL    HW129224   0.960   2.786   5.441  1.0684  0.6845  0.0001
 9258SOL    HW229225   1.076   2.730   5.361 -0.9088 -0.6697 -2.0496
 9259SOL     OW29226   0.582   1.958   7.138  0.5067 -0.3808  0.2117
 9259SOL    HW129227   0.543   1.932   7.221  1.5424 -1.1031  0.4864
 9259SOL    HW229228   0.539   1.903   7.073  0.2493 -0.3586  0.3613
 9260SOL     OW29229   5.567   5.650   2.024 -1.2062  0.1004  0.5967
 9260SOL    HW129230   5.656   5.616   2.017 -1.5226 -1.2517  2.4777
 9260SOL    HW229231   5.573   5.740   1.990  0.8329  0.0191  0.6161
 9261SOL     OW29232   3.307   6.990   1.855  0.2486 -0.4871  0.5817
 9261SOL    HW129233   3.223   7.035   1.855 -0.8792 -2.4468  1.2379
 9261SOL    HW229234   3.310   6.944   1.772  1.2177  0.4353  0.0782
 9262SOL     OW29235   6.181   1.764   5.220  0.2984  0.5959 -0.4175
 9262SOL    HW129236   6.205   1.672   5.210 -0.5789  0.5108 -2.0316
 9262SOL    HW229237   6.241   1.811   5.162 -0.4083  0.8364 -0.9687
 9263SOL     OW29238   1.554   3.490   3.650  0.2846 -0.1984 -0.6338
 9263SOL    HW129239   1.478   3.466   3.703  0.0007  1.6290 -0.1420
 9263SOL    HW229240   1.629   3.468   3.705 -0.0118  2.4280  1.0049
 9264SOL     OW29241   3.378   3.880   3.760 -0.0731 -0.4898  0.4362
 9264SOL    HW129242   3.301   3.926   3.791  0.6088  0.1917  1.1304
 9264SOL    HW229243   3.343   3.803   3.715 -1.1828  0.2594 -0.0163
 9265SOL     OW29244   6.156   3.703   2.454  0.5599 -0.0255 -0.3198
 9265SOL    HW129245   6.225   3.765   2.478  0.3188 -0.2229  1.0002
 9265SOL    HW229246   6.096   3.754   2.399  0.8798  0.6408 -0.0603
 9266SOL     OW29247   2.590   6.070   1.577  0.3173 -0.6790 -0.1492
 9266SOL    HW129248   2.632   6.154   1.597  1.3159 -1.1095 -0.3522
 9266SOL    HW229249   2.522   6.091   1.513  1.6599 -0.2244 -1.4895
 9267SOL     OW29250   3.030   0.205   0.830  0.5564  0.1658 -0.7075
 9267SOL    HW129251   2.979   0.185   0.908  0.7774  0.4206 -0.4943
 9267SOL    HW229252   2.983   0.163   0.758 -0.8136  1.6724 -0.7397
 9268SOL     OW29253   5.461   2.978   1.060  0.2375 -0.3230  0.4740
 9268SOL    HW129254   5.485   3.069   1.044  3.3601 -1.0324  0.6073
 9268SOL    HW229255   5.504   2.956   1.143  1.1872 -2.4382 -0.5111
 9269SOL     OW29256   0.127   3.234   6.806 -0.0480 -0.2450 -0.1047
 9269SOL    HW129257   0.155   3.181   6.731 -0.5948  1.1066 -1.3086
 9269SOL    HW229258   0.048   3.191   6.838  0.0417 -0.6867 -0.4683
 9270SOL     OW29259   3.737   4.333   0.303  0.1273  0.5218 -0.7452
 9270SOL    HW129260   3.829   4.357   0.313  0.1573 -0.0972  0.6652
 9270SOL    HW229261   3.690   4.393   0.361 -0.1359 -0.5010  0.1239
 9271SOL     OW29262   2.105   6.133   6.075  0.1848  0.0942 -0.4741
 9271SOL    HW129263   2.081   6.166   5.989  4.2166  0.6974 -1.5554
 9271SOL    HW229264   2.136   6.044   6.059  1.1101  0.2574  0.3177
 9272SOL     OW29265   6.080   2.918   2.264 -0.1075 -0.0186  0.2752
 9272SOL    HW129266   6.009   2.961   2.311 -0.1705 -1.1190  1.2285
 9272SOL    HW229267   6.058   2.929   2.172 -1.4058 -0.1468  0.5479
 9273SOL     OW29268   0.989   0.112   0.712  0.0331  0.1233  0.6547
 9273SOL    HW129269   0.945   0.179   0.659 -0.8929  0.5880  1.9851
 9273SOL    HW229270   1.082   0.126   0.694 -0.2486 -0.8358 -2.1389
 9274SOL     OW29271   4.054   2.676   3.027 -0.0277  0.3855  0.1249
 9274SOL    HW129272   4.018   2.763   3.010 -0.8867 -0.3508 -2.1621
 9274SOL    HW229273   3.988   2.615   2.995  1.7935 -1.0663 -1.1078
 9275SOL     OW29274   6.373   2.939   5.388  0.1137  0.1294 -0.0152
 9275SOL    HW129275   6.423   2.858   5.399  0.3262  0.3757  0.9242
 9275SOL    HW229276   6.431   3.007   5.422 -0.3193  0.5929 -0.1946
 9276SOL     OW29277   4.653   6.756   5.744  0.7063 -0.3398 -0.3868
 9276SOL    HW129278   4.735   6.712   5.719  0.2328 -0.6290 -1.4552
 9276SOL    HW229279   4.616   6.788   5.662  0.0502  0.3489  0.1576
 9277SOL     OW29280   2.707   5.019   0.004  0.3636 -0.7153  0.0446
 9277SOL    HW129281   2.667   4.941   0.042  0.0540 -0.0901  1.0562
 9277SOL    HW229282   2.781   4.986  -0.047 -1.5106 -1.9061 -2.0408
 9278SOL     OW29283   1.879   6.976   0.220 -0.0150  0.2504  0.1532
 9278SOL    HW129284   1.855   6.992   0.311 -0.2705 -2.8075  0.7225
 9278SOL    HW229285   1.812   7.023   0.169 -0.0305  1.7723  1.4911
 9279SOL     OW29286   3.859   1.507   6.132 -0.3891  0.5115 -0.1883
 9279SOL    HW129287   3.872   1.516   6.226 -0.8598  1.3114 -0.1876
 9279SOL    HW229288   3.892   1.588   6.095 -0.1238  0.1626 -0.7227
 9280SOL     OW29289   2.189   6.209   4.790 -0.2281 -0.5745  0.7755
 9280SOL    HW129290   2.270   6.216   4.740 -0.5771  1.5664  0.4238
 9280SOL    HW229291   2.125   6.175   4.727 -0.8683  2.8645 -0.6399
 9281SOL     OW29292   2.661   2.360   0.765  0.4150  0.3024  0.3099
 9281SOL    HW129293   2.686   2.286   0.710  0.1239  1.2662 -1.1965
 9281SOL    HW229294   2.570   2.343   0.789  1.3425 -1.5364  2.9831
 9282SOL     OW29295   0.174   0.149   1.773 -0.1560  0.0178  0.4980
 9282SOL    HW129296   0.089   0.112   1.796 -0.9590  2.0717  1.0392
 9282SOL    HW229297   0.190   0.119   1.683 -2.1099  0.7074 -0.1109
 9283SOL     OW29298   0.510   3.756   3.273 -0.0484  0.2634  0.2772
 9283SOL    HW129299   0.438   3.769   3.334  1.7703 -0.8173  2.8597
 9283SOL    HW229300   0.469   3.727   3.192 -2.5230  0.3882  1.3965
 9284SOL     OW29301   4.283   2.994   6.066  0.1251 -0.4967  0.4453
 9284SOL    HW129302   4.289   3.036   5.980 -1.1990 -1.6604 -0.2777
 9284SOL    HW229303   4.304   3.063   6.128  1.8571  0.1986 -0.8197
 9285SOL     OW29304   0.522   3.670   0.383  0.7037  0.5041  0.6124
 9285SOL    HW129305   0.583   3.735   0.348 -0.8649  1.7033 -0.0789
 9285SOL    HW229306   0.436   3.699   0.350 -0.3102 -0.7521  2.0206
 9286SOL     OW29307   4.429   5.870   2.104 -0.6878  0.2798  0.3112
 9286SOL    HW129308   4.344   5.873   2.060 -0.5547 -0.5128 -0.0182
 9286SOL    HW229309   4.482   5.812   2.050 -0.5505 -0.7998  1.5380
 9287SOL     OW29310   4.150   5.145   0.336 -0.4557  0.1494 -0.0573
 9287SOL    HW129311   4.060   5.114   0.331 -0.1651 -0.6865 -0.2992
 9287SOL    HW229312   4.167   5.185   0.250 -0.2488 -0.7056 -0.4282
 9288SOL     OW29313   3.273   2.335   0.383  0.0605  0.1145 -0.0555
 9288SOL    HW129314   3.324   2.416   0.383 -0.9547  0.7896 -1.5236
 9288SOL    HW229315   3.249   2.322   0.291 -0.9977 -1.0872  0.3683
 9289SOL     OW29316   2.172   7.080   3.643  0.1678  0.2152 -0.8396
 9289SOL    HW129317   2.109   7.132   3.693 -1.5349 -1.9005 -0.6407
 9289SOL    HW229318   2.211   7.020   3.707  1.2283  0.4313 -1.2649
 9290SOL     OW29319   6.876   0.292   4.966 -0.2844  0.0592 -0.2196
 9290SOL    HW129320   6.899   0.206   4.933  0.6408 -0.2761  1.2077
 9290SOL    HW229321   6.819   0.275   5.041  0.9668  0.5867  0.9090
 9291SOL     OW29322   1.971   3.860   5.368 -0.1692 -0.7088  0.0173
 9291SOL    HW129323   2.012   3.929   5.316 -0.2845  0.2357  1.1208
 9291SOL    HW229324   1.879   3.864   5.345 -0.0920 -0.8710 -0.3246
 9292SOL     OW29325   6.531   4.095   3.401 -0.1970 -0.1494  0.6147
 9292SOL    HW129326   6.618   4.091   3.440 -0.5502  1.9055  1.7783
 9292SOL    HW229327   6.488   4.014   3.427  0.6275 -0.1824  1.9315
 9293SOL     OW29328   6.193   0.659   5.345  0.3189 -0.5704  0.2843
 9293SOL    HW129329   6.099   0.650   5.330  0.1973 -1.7684  1.5298
 9293SOL    HW229330   6.200   0.716   5.422  0.8009  2.5444 -1.8673
 9294SOL     OW29331   6.058   2.655   5.650 -0.0571 -0.2712  0.2331
 9294SOL    HW129332   6.001   2.616   5.716 -3.3204  0.3714 -1.9545
 9294SOL    HW229333   6.086   2.738   5.689 -1.8043  0.0434  0.8929
 9295SOL     OW29334   2.757   3.072   2.820 -0.1681  0.4540 -0.6418
 9295SOL    HW129335   2.793   3.033   2.900 -0.6507 -1.5850 -1.3594
 9295SOL    HW229336   2.701   3.004   2.783 -1.3657  1.9992 -1.8065
 9296SOL     OW29337   0.628   4.287   2.546  0.0489 -0.0838 -0.2760
 9296SOL    HW129338   0.700   4.262   2.489  0.4260  0.4785 -0.0601
 9296SOL    HW229339   0.670   4.317   2.626 -0.4255  0.2356 -0.1386
 9297SOL     OW29340   5.947   0.007   2.399  0.2362  0.2289  0.3395
 9297SOL    HW129341   5.906  -0.070   2.439 -0.4371 -0.3729 -1.3994
 9297SOL    HW229342   6.035  -0.022   2.376 -0.4231 -0.4729 -1.4461
 9298SOL     OW29343   4.463   4.290   7.061 -0.0874  0.1131  0.3644
 9298SOL    HW129344   4.395   4.356   7.076 -1.2030 -1.2771  1.6827
 9298SOL    HW229345   4.447   4.223   7.127  1.0782 -1.4403 -0.8479
 9299SOL     OW29346   5.923   2.304   3.823  0.0191 -0.4344  0.1860
 9299SOL    HW129347   5.833   2.315   3.793 -0.1978 -1.0738  0.5749
 9299SOL    HW229348   5.976   2.350   3.758 -0.7000  1.5146  0.9097
 9300SOL     OW29349   6.242   3.347   0.170  0.3241  0.0398  0.3325
 9300SOL    HW129350   6.279   3.435   0.161  0.5226  0.0309  0.9996
 9300SOL    HW229351   6.272   3.300   0.093 -0.5082  0.8080 -0.4927
 9301SOL     OW29352   6.155   0.509   6.200  0.0226 -0.2075 -0.0670
 9301SOL    HW129353   6.237   0.553   6.177 -0.2086  1.1366  1.5627
 9301SOL    HW229354   6.145   0.523   6.294 -3.3094  1.8773 -0.5591
 9302SOL     OW29355   6.617   5.918   1.442 -0.3379  0.0825  0.2002
 9302SOL    HW129356   6.622   5.915   1.538  0.5897 -0.6982  0.1484
 9302SOL    HW229357   6.638   5.828   1.415 -2.1930 -0.1243 -0.6857
 9303SOL     OW29358   3.563   3.480   2.736  0.2483  0.4785 -0.5964
 9303SOL    HW129359   3.529   3.566   2.758 -1.0199 -0.5811  2.0855
 9303SOL    HW229360   3.493   3.438   2.687 -0.8202 -0.2982  1.4655
 9304SOL     OW29361   0.945   3.948   4.993 -0.2234  0.9852 -0.5953
 9304SOL    HW129362   1.004   3.928   4.920  0.9446  2.9729 -0.2630
 9304SOL    HW229363   0.966   3.883   5.060 -1.5623 -1.1089 -2.0577
 9305SOL     OW29364   6.023   5.300   5.140 -0.2041 -0.0977  0.1636
 9305SOL    HW129365   6.045   5.251   5.219 -0.2096 -0.7683 -0.2391
 9305SOL    HW229366   6.023   5.234   5.070  1.8139  0.8162 -0.7681
 9306SOL     OW29367   1.567   3.027   2.959 -0.3621  0.6601 -0.1634
 9306SOL    HW129368   1.533   2.989   2.878  0.1228 -1.8160  0.6872
 9306SOL    HW229369   1.661   3.030   2.947 -0.2951  0.3573  0.2529
 9307SOL     OW29370   4.123   4.578   2.676 -1.1580  0.4120  0.2266
 9307SOL    HW129371   4.179   4.611   2.746 -0.3359 -1.5001  0.5297
 9307SOL    HW229372   4.103   4.655   2.623  0.3407  1.4446  1.0907
 9308SOL     OW29373   5.218   3.759   3.870 -0.6656  0.2942 -0.2222
 9308SOL    HW129374   5.257   3.789   3.952  0.0479 -0.1832 -0.3776
 9308SOL    HW229375   5.184   3.839   3.830  2.8277  1.3173 -1.5021
 9309SOL     OW29376   4.172   5.027   4.334  0.0060  0.2213  0.2003
 9309SOL    HW129377   4.163   4.965   4.406  0.0088 -0.9850 -0.7923
 9309SOL    HW229378   4.204   4.973   4.261 -1.9438  0.9725 -1.2799
 9310SOL     OW29379   5.737   2.932   3.110  0.1839 -0.2935 -0.1151
 9310SOL    HW129380   5.682   2.944   3.033  0.6602 -0.6687 -0.5236
 9310SOL    HW229381   5.759   3.021   3.139  1.9769 -0.0810 -1.8608
 9311SOL     OW29382   0.585   5.955   6.528 -0.6156  0.4010 -0.0254
 9311SOL    HW129383   0.556   5.867   6.504 -1.7606  0.2691  1.6553
 9311SOL    HW229384   0.619   5.992   6.447  0.3094 -1.7247 -0.6936
 9312SOL     OW29385   6.265   6.702   5.568 -0.4959 -0.2351 -0.3343
 9312SOL    HW129386   6.349   6.703   5.614 -1.5373  0.5868  1.6696
 9312SOL    HW229387   6.278   6.759   5.493  0.6675  0.0645  0.0790
 9313SOL     OW29388   5.441   5.910   1.339  0.0357 -0.1320  0.0829
 9313SOL    HW129389   5.385   5.988   1.342  1.9788  1.3442 -0.2498
 9313SOL    HW229390   5.459   5.890   1.431 -1.4466 -1.0012  0.2297
 9314SOL     OW29391   3.010   6.040   4.262 -0.1887 -0.4511 -0.0035
 9314SOL    HW129392   2.957   6.059   4.340  0.5820  0.1447  0.3940
 9314SOL    HW229393   3.083   5.988   4.295  0.8702  0.9299 -0.0673
 9315SOL     OW29394   6.787   3.935   4.877 -0.0344  0.2363  0.3625
 9315SOL    HW129395   6.745   3.894   4.952 -0.0476  1.5954  1.1235
 9315SOL    HW229396   6.815   3.861   4.822  0.0685 -0.7782  1.7324
 9316SOL     OW29397   3.339   2.668   7.079 -0.1436  0.1407 -0.5061
 9316SOL    HW129398   3.337   2.754   7.038  0.3507 -0.2811 -1.4428
 9316SOL    HW229399   3.329   2.686   7.173 -2.4514  1.0352 -0.8719
 9317SOL     OW29400   3.964   3.307   1.616  0.0872 -0.4002  0.2548
 9317SOL    HW129401   3.917   3.326   1.534 -4.1987 -0.2035  2.4828
 9317SOL    HW229402   3.998   3.391   1.644  0.7331 -0.2952 -0.7776
 9318SOL     OW29403   4.851   1.705   1.863 -0.4387  0.0281 -0.0413
 9318SOL    HW129404   4.827   1.699   1.770 -1.4269  0.7872  0.1522
 9318SOL    HW229405   4.768   1.720   1.908  0.1662  0.7431  0.8617
 9319SOL     OW29406   3.636   4.250   3.697  0.2466  0.4287 -0.2202
 9319SOL    HW129407   3.630   4.334   3.653  0.5122  0.1172 -0.8621
 9319SOL    HW229408   3.555   4.205   3.675 -0.8175  1.2680  1.7486
 9320SOL     OW29409   0.347   3.318   1.194 -0.1315 -0.1638 -0.5220
 9320SOL    HW129410   0.312   3.246   1.246  0.7168  0.1533  0.5195
 9320SOL    HW229411   0.285   3.328   1.122 -0.4508 -1.7088 -0.5004
 9321SOL     OW29412   0.891   6.706   3.381 -0.0885  0.0692 -0.1926
 9321SOL    HW129413   0.867   6.615   3.363 -1.4161  0.1972  0.7465
 9321SOL    HW229414   0.890   6.748   3.295 -0.2598 -0.6204 -0.5418
 9322SOL     OW29415   4.410   2.005   0.224  0.0503  0.1662 -0.5786
 9322SOL    HW129416   4.354   2.075   0.192 -1.6248 -0.1305  1.4538
 9322SOL    HW229417   4.350   1.932   0.241  1.4569 -1.0891 -0.7860
 9323SOL     OW29418   7.009   5.690   5.275 -0.4057 -0.0757  0.1393
 9323SOL    HW129419   6.949   5.654   5.210 -1.9662  0.5598  1.1677
 9323SOL    HW229420   7.079   5.729   5.224 -2.8670  2.7333 -1.3805
 9324SOL     OW29421   5.955   2.598   2.703 -0.2729 -0.2208  0.2962
 9324SOL    HW129422   5.883   2.659   2.689  1.4951  1.4699 -1.9539
 9324SOL    HW229423   6.034   2.651   2.701  1.2343 -2.3143  0.2688
 9325SOL     OW29424   0.498   2.086   0.601 -0.2956 -0.1589  0.4197
 9325SOL    HW129425   0.458   2.000   0.612 -0.8712 -0.0950 -0.9503
 9325SOL    HW229426   0.445   2.129   0.534  0.9219  0.6686 -0.0558
 9326SOL     OW29427   6.591   5.246   5.609  0.5297  0.0623  0.1128
 9326SOL    HW129428   6.627   5.158   5.619  1.5244  0.4288 -0.0994
 9326SOL    HW229429   6.645   5.301   5.665 -0.6414  0.4191  0.9370
 9327SOL     OW29430   7.012   4.889   0.745 -0.6932 -0.2215 -0.4625
 9327SOL    HW129431   6.990   4.796   0.749 -1.7600  0.0649  1.5548
 9327SOL    HW229432   6.938   4.932   0.788  1.3292  1.2658  1.7578
 9328SOL     OW29433   5.199   3.387   3.549 -0.0638  0.3113  0.2862
 9328SOL    HW129434   5.215   3.440   3.470 -0.4458  1.8733  1.2205
 9328SOL    HW229435   5.171   3.450   3.615  1.2341 -0.8211  2.0030
 9329SOL     OW29436   4.820   1.804   0.018  0.3331  0.1991  0.0119
 9329SOL    HW129437   4.785   1.724   0.057  1.3821  0.5302  1.7423
 9329SOL    HW229438   4.748   1.868   0.026  0.3577  0.1214  1.0153
 9330SOL     OW29439   5.250   4.422   1.850  0.3196  0.0001  0.7687
 9330SOL    HW129440   5.232   4.353   1.914  0.5580  0.4836  1.3690
 9330SOL    HW229441   5.174   4.480   1.854 -1.0990 -1.5143 -1.5442
 9331SOL     OW29442   1.280   6.762   1.680  0.4911  0.0238  0.2794
 9331SOL    HW129443   1.295   6.855   1.663  3.3293 -0.2856  0.6975
 9331SOL    HW229444   1.352   6.717   1.637  0.8791 -1.7468  2.5663
 9332SOL     OW29445   4.863   3.058   0.235 -0.1709 -0.1778 -0.0574
 9332SOL    HW129446   4.865   3.094   0.146 -0.9221 -0.3959 -0.1669
 9332SOL    HW229447   4.849   2.965   0.223 -1.5530 -0.0336  0.3217
 9333SOL     OW29448   2.285   2.734   3.921  0.3319 -0.3929  0.3889
 9333SOL    HW129449   2.229   2.664   3.887 -0.2961 -0.9130  2.3521
 9333SOL    HW229450   2.341   2.690   3.984  1.5665  0.4994 -0.0557
 9334SOL     OW29451   6.025   4.116   4.625  0.0708  0.4147  0.0386
 9334SOL    HW129452   5.946   4.169   4.637  0.4876  0.7897  1.2072
 9334SOL    HW229453   6.025   4.095   4.532 -1.0783  0.9294 -0.0978
 9335SOL     OW29454   5.825   0.889   6.477 -0.0513 -0.0088 -0.0434
 9335SOL    HW129455   5.859   0.978   6.467  1.1882 -0.5225 -0.6329
 9335SOL    HW229456   5.823   0.874   6.572 -2.3133  1.3616  0.2069
 9336SOL     OW29457   4.306   7.029   4.978 -0.0778  0.4611  0.8727
 9336SOL    HW129458   4.269   6.987   4.900  2.1247 -0.7672  0.4204
 9336SOL    HW229459   4.314   7.121   4.954 -0.9034  0.3869  0.2562
 9337SOL     OW29460   2.805   2.676   6.940  1.2993  0.0388 -0.8777
 9337SOL    HW129461   2.899   2.676   6.962  1.5147 -2.8145 -1.4097
 9337SOL    HW229462   2.773   2.591   6.969 -1.2771  1.0952 -0.3499
 9338SOL     OW29463   4.720   1.936   3.622  0.0412  0.2839 -0.4240
 9338SOL    HW129464   4.714   1.942   3.717  0.4157  0.7058 -0.4210
 9338SOL    HW229465   4.671   1.857   3.599  0.6180 -0.2706  0.1979
 9339SOL     OW29466   2.480   4.224   6.210 -0.0357  0.0739  0.3828
 9339SOL    HW129467   2.521   4.190   6.131 -1.2087 -0.1773 -0.1288
 9339SOL    HW229468   2.538   4.295   6.238 -0.9617  1.9855 -2.2193
 9340SOL     OW29469   0.265   1.863   1.657 -0.0465  0.6158  0.4223
 9340SOL    HW129470   0.332   1.931   1.666  0.0229  0.9447 -1.9164
 9340SOL    HW229471   0.312   1.781   1.669  0.1949  0.9219  1.6500
 9341SOL     OW29472   1.655   4.337   5.887 -0.2877 -0.4688 -0.6396
 9341SOL    HW129473   1.718   4.369   5.823  1.4654  0.3745  1.3766
 9341SOL    HW229474   1.656   4.242   5.877 -0.9509 -0.3233 -2.5863
 9342SOL     OW29475   6.645   5.594   2.821  0.1812  0.7564  0.2528
 9342SOL    HW129476   6.588   5.518   2.809 -0.5658  1.2551  0.5315
 9342SOL    HW229477   6.659   5.598   2.916  0.8607  0.5046  0.1606
 9343SOL     OW29478   3.012   2.759   5.753  0.3371  0.1116  0.0789
 9343SOL    HW129479   3.067   2.738   5.828  1.3504  0.4974 -0.5369
 9343SOL    HW229480   2.975   2.675   5.725 -0.4152  0.0253  1.2671
 9344SOL     OW29481   1.600   1.415   0.102 -0.1136  0.1665 -0.0670
 9344SOL    HW129482   1.621   1.505   0.077 -0.1177 -0.3425 -2.0457
 9344SOL    HW229483   1.683   1.378   0.131 -0.2523  0.9916  1.4968
 9345SOL     OW29484   5.201   6.277   4.996 -0.7779  0.2015  0.7563
 9345SOL    HW129485   5.181   6.289   4.903  2.7834 -3.9693 -0.8877
 9345SOL    HW229486   5.280   6.330   5.011 -0.0224 -0.8908  0.7172
 9346SOL     OW29487   1.599   3.582   4.907 -0.4440  0.0209  0.1872
 9346SOL    HW129488   1.602   3.584   4.812 -0.7992 -1.8864  0.1013
 9346SOL    HW229489   1.641   3.663   4.934  2.3989 -0.7441 -1.5558
 9347SOL     OW29490   4.038   6.378   4.749  0.1503  0.2957 -0.0711
 9347SOL    HW129491   4.046   6.473   4.747  0.5698  0.2594 -0.9181
 9347SOL    HW229492   4.037   6.353   4.657  0.5464 -0.5538  0.1449
 9348SOL     OW29493   3.277   1.448   6.895 -0.1316  0.2066  0.3904
 9348SOL    HW129494   3.239   1.535   6.886  0.7085  0.8511  2.4601
 9348SOL    HW229495   3.225   1.393   6.836 -1.5212  1.8440  0.0026
 9349SOL     OW29496   5.343   5.239   5.749  0.4039 -0.1972  0.6606
 9349SOL    HW129497   5.271   5.292   5.714  0.3165  0.2826  1.5350
 9349SOL    HW229498   5.349   5.164   5.690 -0.5791 -0.0634  0.3750
 9350SOL     OW29499   1.366   3.326   3.812 -0.4226 -0.3274 -0.3247
 9350SOL    HW129500   1.288   3.333   3.868  0.6060  1.2146  1.0305
 9350SOL    HW229501   1.428   3.277   3.865  0.1140 -0.0262 -0.6714
 9351SOL     OW29502   1.131   0.506   0.647 -0.8930 -0.1330  0.0729
 9351SOL    HW129503   1.201   0.458   0.693 -1.3220  0.0423  0.9382
 9351SOL    HW229504   1.051   0.478   0.691 -1.2057  0.9366  0.2120
 9352SOL     OW29505   0.138   7.007   1.185 -0.0756 -0.0662 -0.0119
 9352SOL    HW129506   0.164   7.017   1.093  0.6118  1.1912  0.3032
 9352SOL    HW229507   0.210   7.045   1.235 -0.4437 -0.7401  1.0594
 9353SOL     OW29508   0.538   1.813   0.825  0.0140 -0.3840  0.2324
 9353SOL    HW129509   0.568   1.810   0.915  0.8907  2.6834  0.1803
 9353SOL    HW229510   0.608   1.772   0.774  0.3438 -0.5392  0.8111
 9354SOL     OW29511   2.903   0.731   4.659 -0.7545  0.5980  0.0183
 9354SOL    HW129512   2.959   0.653   4.654  0.2975  1.1609  2.0088
 9354SOL    HW229513   2.819   0.703   4.621 -0.4943 -1.5742  0.9061
 9355SOL     OW29514   5.006   0.340   5.173 -0.1390 -0.6556  0.0000
 9355SOL    HW129515   5.042   0.265   5.126 -1.4031 -0.4937 -1.2968
 9355SOL    HW229516   4.918   0.350   5.139 -0.7238  0.1853  1.6349
 9356SOL     OW29517   1.709   2.752   2.570  0.1714 -0.0815 -0.0652
 9356SOL    HW129518   1.704   2.687   2.641 -0.6500  0.6090  0.5358
 9356SOL    HW229519   1.639   2.727   2.510  0.8096 -0.6125 -0.6020
 9357SOL     OW29520   1.983   5.793   3.314 -0.7854 -0.1377 -0.5207
 9357SOL    HW129521   1.980   5.818   3.222 -1.3867  0.4970 -0.3460
 9357SOL    HW229522   2.005   5.874   3.360 -1.2704 -0.2573 -0.0540
 9358SOL     OW29523   0.035   0.479   5.275 -0.5747 -0.1454 -0.2313
 9358SOL    HW129524   0.084   0.524   5.206 -1.0138 -0.8295 -1.0052
 9358SOL    HW229525   0.080   0.394   5.285  1.7859  1.2614  2.9239
 9359SOL     OW29526   3.403   2.820   5.849  0.8126 -0.3090  0.2200
 9359SOL    HW129527   3.428   2.781   5.765  0.1073  0.8178 -0.5337
 9359SOL    HW229528   3.477   2.876   5.873  0.4114  0.5019 -0.3925
 9360SOL     OW29529   5.113   3.683   1.016  0.0817 -0.5549  0.2921
 9360SOL    HW129530   5.062   3.626   0.957  1.7137 -0.0576 -1.7028
 9360SOL    HW229531   5.155   3.746   0.958 -0.7708  2.0539  2.3307
 9361SOL     OW29532   1.562   6.628   4.660  0.2061  0.1660  0.1630
 9361SOL    HW129533   1.613   6.621   4.741 -0.0173  2.2778  0.5416
 9361SOL    HW229534   1.490   6.687   4.682 -0.3280  0.1173 -1.3566
 9362SOL     OW29535   4.822   4.302   3.693 -0.6732 -0.1494  0.3715
 9362SOL    HW129536   4.774   4.357   3.631 -0.6761 -2.6010 -2.0088
 9362SOL    HW229537   4.756   4.277   3.758 -0.7553  2.2331  1.2949
 9363SOL     OW29538   2.994   6.115   1.182 -0.2165  0.3714 -0.5570
 9363SOL    HW129539   2.924   6.051   1.175  1.1941 -1.1281 -1.7150
 9363SOL    HW229540   2.986   6.168   1.102  0.2408 -0.1052 -0.9235
 9364SOL     OW29541   1.321   6.211   6.406  0.0319  0.2281  0.4910
 9364SOL    HW129542   1.374   6.133   6.423 -1.1794 -0.7368 -0.0176
 9364SOL    HW229543   1.318   6.217   6.310  1.2930  1.7564  0.5016
 9365SOL     OW29544   3.511   3.546   1.046 -0.0193 -0.0347 -0.7825
 9365SOL    HW129545   3.550   3.479   0.990  0.7367  0.1406 -0.4779
 9365SOL    HW229546   3.537   3.629   1.006 -2.1105  0.1193 -1.9603
 9366SOL     OW29547   6.835   0.548   4.682 -0.2012  0.0681  0.6577
 9366SOL    HW129548   6.808   0.636   4.657 -1.9097 -0.1013  1.7847
 9366SOL    HW229549   6.857   0.555   4.775  1.0128 -0.4288  0.4364
 9367SOL     OW29550   3.751   1.340   6.683 -0.7162 -0.3263  0.0117
 9367SOL    HW129551   3.755   1.255   6.639  1.7182 -0.6366  0.6574
 9367SOL    HW229552   3.757   1.319   6.776  1.5668  0.5168  0.1325
 9368SOL     OW29553   1.627   3.041   1.937 -0.7803  0.0555  0.1056
 9368SOL    HW129554   1.642   2.963   1.883  4.1134  1.7715 -1.5428
 9368SOL    HW229555   1.652   3.014   2.025 -0.6565 -0.6563 -0.1395
 9369SOL     OW29556   1.328   1.502   3.955 -0.0334 -0.0823  0.1582
 9369SOL    HW129557   1.325   1.408   3.975  0.0110  0.0827  0.9854
 9369SOL    HW229558   1.315   1.507   3.861  2.0517 -1.0427 -0.2194
 9370SOL     OW29559   6.457   6.059   0.576 -0.2279  0.1500  0.5127
 9370SOL    HW129560   6.533   6.026   0.528 -0.9378  2.3442 -2.4177
 9370SOL    HW229561   6.494   6.110   0.648  1.0236 -0.3375  0.2422
 9371SOL     OW29562   4.211   4.801   3.676 -0.1741  0.2332  0.7166
 9371SOL    HW129563   4.130   4.800   3.624 -0.0135 -0.1668  0.4669
 9371SOL    HW229564   4.206   4.723   3.730  0.6910 -0.5812 -0.3310
 9372SOL     OW29565   3.358   6.982   4.964 -0.3538 -0.3449  0.2489
 9372SOL    HW129566   3.277   6.963   4.916 -0.7476 -0.9510  1.1241
 9372SOL    HW229567   3.366   6.910   5.027  1.6079 -1.0525 -0.7183
 9373SOL     OW29568   0.372   4.253   2.643 -0.1896 -0.2931 -0.0157
 9373SOL    HW129569   0.460   4.271   2.608 -0.0802  1.1290  0.9156
 9373SOL    HW229570   0.317   4.322   2.606 -0.6511 -0.4308  0.4116
 9374SOL     OW29571   0.940   0.082   5.111 -0.2369 -0.1031  0.0840
 9374SOL    HW129572   0.929   0.173   5.084  2.5435  0.8969  1.8941
 9374SOL    HW229573   0.891   0.031   5.046 -3.0597  2.6934 -0.2049
 9375SOL     OW29574   1.648   6.662   6.116  0.5287 -0.7280 -0.1000
 9375SOL    HW129575   1.614   6.590   6.169  0.5810 -0.5855  0.1263
 9375SOL    HW229576   1.593   6.662   6.038 -1.3256  0.7865  1.1272
 9376SOL     OW29577   1.093   4.823   0.966  0.5017  0.6332 -0.6111
 9376SOL    HW129578   1.040   4.828   1.045  1.4877 -2.6169  0.4201
 9376SOL    HW229579   1.032   4.797   0.897 -0.0863  1.9831 -0.6294
 9377SOL     OW29580   5.977   0.624   2.341  0.4403  0.3237  0.5393
 9377SOL    HW129581   5.970   0.533   2.368  0.6111  0.3515  0.6824
 9377SOL    HW229582   5.889   0.647   2.310  0.5717 -0.0929 -0.1640
 9378SOL     OW29583   5.503   6.303   1.645 -0.0284  0.2642 -0.0770
 9378SOL    HW129584   5.523   6.248   1.721  1.9535  1.9758  0.7167
 9378SOL    HW229585   5.456   6.378   1.680  0.2718  0.7335 -0.6594
 9379SOL     OW29586   2.553   1.134   5.308 -0.3530  0.3139  0.0925
 9379SOL    HW129587   2.568   1.221   5.346  0.7726 -0.1465  0.7565
 9379SOL    HW229588   2.469   1.106   5.343  0.5855 -0.0307  2.1856
 9380SOL     OW29589   5.396   4.654   5.100  0.2805  0.0727 -0.9983
 9380SOL    HW129590   5.417   4.641   5.007  0.0326  0.7301 -1.1543
 9380SOL    HW229591   5.396   4.749   5.111  0.1957  0.0017 -0.3466
 9381SOL     OW29592   6.447   0.088   7.087 -0.2970 -0.2526  0.1311
 9381SOL    HW129593   6.415   0.009   7.044 -0.3771 -0.7532  1.0988
 9381SOL    HW229594   6.368   0.138   7.107 -0.2057  0.4296 -1.1291
 9382SOL     OW29595   2.226   5.726   2.161  0.1514  0.0920 -0.0187
 9382SOL    HW129596   2.253   5.658   2.222 -2.2580  0.1605  1.2736
 9382SOL    HW229597   2.215   5.682   2.077 -1.9145 -1.3377  0.9169
 9383SOL     OW29598   2.459   1.455   6.053 -0.1007  0.1020 -0.2370
 9383SOL    HW129599   2.418   1.377   6.089 -0.5834  0.6760  0.4861
 9383SOL    HW229600   2.426   1.527   6.107  1.3741  0.6680 -0.0424
 9384SOL     OW29601   3.146   5.768   6.471 -0.0196 -0.3348 -0.3529
 9384SOL    HW129602   3.136   5.792   6.564 -1.7657 -2.2994  0.0565
 9384SOL    HW229603   3.232   5.728   6.466 -0.1600 -0.7996  0.6066
 9385SOL     OW29604   3.418   7.060   6.729  0.1599 -0.1745  0.1533
 9385SOL    HW129605   3.511   7.066   6.751 -0.1504  1.0320  1.2629
 9385SOL    HW229606   3.399   6.967   6.733  1.2576 -0.4153  0.1825
 9386SOL     OW29607   6.597   3.130   6.839 -0.1252  0.3923  0.0567
 9386SOL    HW129608   6.628   3.094   6.922 -0.3220 -0.8402 -0.3879
 9386SOL    HW229609   6.514   3.173   6.861 -0.4062 -0.3199  0.4328
 9387SOL     OW29610   3.837   3.319   3.485 -0.2071  0.0587 -0.3209
 9387SOL    HW129611   3.771   3.380   3.453 -0.9217 -0.5060  0.0398
 9387SOL    HW229612   3.807   3.294   3.573  0.0955 -0.7710 -0.4418
 9388SOL     OW29613   1.636   3.045   0.304  0.5237  0.1285  0.1672
 9388SOL    HW129614   1.647   2.959   0.264 -1.0163  0.0317 -0.1125
 9388SOL    HW229615   1.673   3.037   0.391  0.7866 -0.6943 -0.0187
 9389SOL     OW29616   4.057   5.683   2.514  0.2595  0.5181  0.2639
 9389SOL    HW129617   4.062   5.779   2.510  1.8378  0.4365 -0.4111
 9389SOL    HW229618   4.121   5.658   2.580 -1.5465 -0.0143  1.9118
 9390SOL     OW29619   2.184   5.206   7.044  0.2956 -0.2297 -0.4743
 9390SOL    HW129620   2.099   5.189   7.085  0.4448  1.9049  0.9180
 9390SOL    HW229621   2.234   5.251   7.112  0.2294  4.4738 -3.0752
 9391SOL     OW29622   6.350   2.400   3.298  0.3189 -0.6999  0.2534
 9391SOL    HW129623   6.306   2.458   3.235  2.7750  2.2591  1.0407
 9391SOL    HW229624   6.408   2.347   3.244  0.6856  0.1522 -0.2118
 9392SOL     OW29625   0.488   4.650   3.678 -0.1283  0.5399 -0.1205
 9392SOL    HW129626   0.468   4.564   3.714  0.8557  0.2772 -0.1944
 9392SOL    HW229627   0.501   4.705   3.755 -1.2609  0.7678 -0.0634
 9393SOL     OW29628   5.987   4.198   5.117  0.1885  0.4600 -0.7662
 9393SOL    HW129629   5.945   4.145   5.049 -0.6893 -0.0846  0.1744
 9393SOL    HW229630   6.073   4.158   5.128 -0.3735 -0.6597 -0.2405
 9394SOL     OW29631   2.359   3.624   0.318 -0.4272  0.3143 -0.2343
 9394SOL    HW129632   2.282   3.632   0.262 -1.1868 -0.6852  0.6220
 9394SOL    HW229633   2.329   3.652   0.405  0.1907 -0.0097  0.0913
 9395SOL     OW29634   7.125   5.819   3.953 -0.6227 -0.0196 -0.2148
 9395SOL    HW129635   7.051   5.758   3.964 -0.0411 -0.8143 -0.6296
 9395SOL    HW229636   7.193   5.784   4.010  1.0180 -1.8901 -3.0777
 9396SOL     OW29637   0.137   1.945   0.333  0.5415 -0.1693  0.4447
 9396SOL    HW129638   0.107   1.897   0.410  2.1246 -0.7015  0.7620
 9396SOL    HW229639   0.065   2.006   0.314 -0.7773 -1.4502  1.0620
 9397SOL     OW29640   4.804   6.491   5.931  0.1961  0.2595 -0.2979
 9397SOL    HW129641   4.837   6.520   5.846  0.4667  0.6198 -0.0725
 9397SOL    HW229642   4.881   6.454   5.975 -0.1170 -0.7084 -0.5347
 9398SOL     OW29643   6.377   3.371   4.361  0.2356 -0.4568 -0.1811
 9398SOL    HW129644   6.363   3.312   4.435  1.0852 -1.2525 -0.6419
 9398SOL    HW229645   6.471   3.390   4.362  0.1510  0.0292 -0.6895
 9399SOL     OW29646   0.201   5.093   0.353  0.6561  0.0523  0.0974
 9399SOL    HW129647   0.170   5.100   0.443  1.4415  2.2259  0.2577
 9399SOL    HW229648   0.296   5.102   0.360  1.4425 -4.8493 -0.5284
 9400SOL     OW29649   2.802   6.679   2.346  0.1252  0.3157  0.4932
 9400SOL    HW129650   2.770   6.592   2.321  0.7895  0.1450  0.1909
 9400SOL    HW229651   2.783   6.734   2.270 -2.2318  0.9844  1.4671
 9401SOL     OW29652   4.189   1.427   0.554 -0.0665  0.0404 -0.4280
 9401SOL    HW129653   4.218   1.484   0.625  3.5804 -1.0426 -0.8388
 9401SOL    HW229654   4.112   1.383   0.589  0.0694  1.4330  1.8548
 9402SOL     OW29655   3.996   4.616   3.371  0.1598  0.2109  0.2152
 9402SOL    HW129656   4.007   4.552   3.441 -0.8445 -0.3358 -0.0989
 9402SOL    HW229657   3.988   4.700   3.415 -2.4565 -0.3363  0.9410
 9403SOL     OW29658   5.423   4.261   0.564 -0.8021  0.1144  0.4261
 9403SOL    HW129659   5.449   4.276   0.656 -0.6757 -1.2735  0.6312
 9403SOL    HW229660   5.413   4.166   0.557 -0.9936  0.2224 -0.9609
 9404SOL     OW29661   4.136   3.364   3.530  0.2953  0.4022  0.6375
 9404SOL    HW129662   4.041   3.376   3.521  0.5631  0.9347 -2.8745
 9404SOL    HW229663   4.172   3.451   3.515  1.3775  0.3706  2.7657
 9405SOL     OW29664   4.064   4.767   4.150  0.0929  0.8750  0.0691
 9405SOL    HW129665   4.025   4.689   4.110  3.9746 -1.1000 -0.2720
 9405SOL    HW229666   4.071   4.746   4.243  0.7984  0.9525  0.0378
 9406SOL     OW29667   2.834   1.152   6.040 -0.4074 -0.2969 -0.5663
 9406SOL    HW129668   2.923   1.159   6.074 -0.3665 -2.4689 -0.0405
 9406SOL    HW229669   2.787   1.102   6.107 -2.4146  1.8920 -0.2208
 9407SOL     OW29670   2.249   5.991   0.467 -0.2838 -0.4028  0.4222
 9407SOL    HW129671   2.266   5.990   0.373 -1.1165  1.7197  0.1862
 9407SOL    HW229672   2.158   6.021   0.474 -0.3334 -0.8129  1.9078
 9408SOL     OW29673   4.107   0.561   4.899 -0.1164  0.2934 -0.3191
 9408SOL    HW129674   4.034   0.551   4.838  0.1393 -0.5376 -0.5026
 9408SOL    HW229675   4.076   0.625   4.964 -1.7969 -1.4817  0.7497
 9409SOL     OW29676   0.724   2.579   4.977 -0.2071 -0.5532  0.0194
 9409SOL    HW129677   0.641   2.538   4.952 -0.6498 -0.9813  2.0165
 9409SOL    HW229678   0.711   2.604   5.069  1.5786  0.1669  0.1067
 9410SOL     OW29679   6.240   0.335   1.661  0.5083  0.1188  0.5206
 9410SOL    HW129680   6.173   0.403   1.655  1.2075  0.6988 -1.4019
 9410SOL    HW229681   6.323   0.382   1.667  0.8523 -0.5897  1.6096
 9411SOL     OW29682   5.824   1.151   0.915  0.7562 -0.2240  0.5450
 9411SOL    HW129683   5.850   1.148   1.007 -1.4521  0.4498  1.2550
 9411SOL    HW229684   5.793   1.241   0.901 -1.8761 -1.1116  0.0743
 9412SOL     OW29685   5.413   6.244   1.365  0.0826  0.0012  0.4511
 9412SOL    HW129686   5.429   6.210   1.454  1.3332 -1.6734 -0.3579
 9412SOL    HW229687   5.493   6.292   1.344 -0.0260  0.0108  0.0691
 9413SOL     OW29688   6.915   3.627   6.246 -0.0764  0.0601 -0.4891
 9413SOL    HW129689   6.866   3.674   6.178 -1.4577 -0.3578  0.1822
 9413SOL    HW229690   6.857   3.627   6.322  0.8144 -0.8131  0.2192
 9414SOL     OW29691   1.800   0.996   4.215  0.6972  0.3624  0.8024
 9414SOL    HW129692   1.767   1.037   4.296 -0.2952  0.7374  0.2299
 9414SOL    HW229693   1.835   1.069   4.164 -0.4047  0.4320  0.0988
 9415SOL     OW29694   6.037   6.996   0.246 -0.2186 -1.0511 -0.1007
 9415SOL    HW129695   6.059   6.982   0.338  0.1866  0.0710 -0.0118
 9415SOL    HW229696   5.941   6.993   0.244 -0.2153 -1.7229  0.2342
 9416SOL     OW29697   6.364   5.723   0.709 -1.0971 -0.1220  0.1416
 9416SOL    HW129698   6.301   5.782   0.666  1.4684  1.4301 -1.7586
 9416SOL    HW229699   6.442   5.776   0.722  0.4179 -2.3954  0.9241
 9417SOL     OW29700   2.692   1.278   6.694 -0.6427  0.1073  0.6239
 9417SOL    HW129701   2.639   1.238   6.763  0.4822 -2.2747  0.2082
 9417SOL    HW229702   2.637   1.276   6.616 -0.4306 -1.1888  0.4868
 9418SOL     OW29703   6.355   3.011   1.931 -0.0064 -0.6275 -0.0858
 9418SOL    HW129704   6.422   3.044   1.991  0.7614 -0.4252 -1.0197
 9418SOL    HW229705   6.328   2.928   1.969  0.0991 -0.2667  0.7995
 9419SOL     OW29706   3.796   3.213   1.033  0.1950 -0.7185 -0.4618
 9419SOL    HW129707   3.864   3.184   1.094  1.5328  2.7712 -0.0269
 9419SOL    HW229708   3.722   3.237   1.090  0.7433  0.7353 -0.3103
 9420SOL     OW29709   1.224   5.068   0.934 -0.2764  0.2084 -0.1340
 9420SOL    HW129710   1.197   4.976   0.934  0.7825 -0.1287  0.3621
 9420SOL    HW229711   1.194   5.102   0.850 -0.9516 -0.5058 -0.1968
 9421SOL     OW29712   0.716   5.197   5.040  0.3022 -0.1359 -0.3826
 9421SOL    HW129713   0.683   5.167   4.955 -0.4707 -0.0562 -0.1134
 9421SOL    HW229714   0.805   5.160   5.045  0.3787 -0.0944 -1.2444
 9422SOL     OW29715   2.302   0.976   6.598 -0.0842 -0.0597 -0.2607
 9422SOL    HW129716   2.319   0.886   6.624 -1.1215 -0.3543 -0.5190
 9422SOL    HW229717   2.271   0.969   6.507 -1.8413  0.3459  0.2603
 9423SOL     OW29718   6.773   4.610   3.552 -0.1997 -0.2144  0.1585
 9423SOL    HW129719   6.706   4.543   3.566  0.6079 -1.0295  0.2232
 9423SOL    HW229720   6.741   4.686   3.600  0.5883 -1.6759  3.2605
 9424SOL     OW29721   1.970   4.411   6.804  0.2192 -0.0290  0.2397
 9424SOL    HW129722   1.971   4.327   6.851  1.2203  0.1630  0.5938
 9424SOL    HW229723   1.885   4.449   6.825  0.0613 -0.6118  0.7063
 9425SOL     OW29724   1.993   4.480   6.366  0.0092  0.3114 -0.1115
 9425SOL    HW129725   1.986   4.517   6.278 -2.0861 -0.3606 -0.2808
 9425SOL    HW229726   1.975   4.553   6.425 -0.7394  0.3119 -0.3316
 9426SOL     OW29727   6.626   5.428   1.500 -0.1678 -0.2858  0.2603
 9426SOL    HW129728   6.550   5.381   1.467  0.4483  1.0589 -3.6481
 9426SOL    HW229729   6.699   5.368   1.489  0.2522  0.6149 -2.4456
 9427SOL     OW29730   2.986   4.822   3.444  0.4555 -0.1328  0.0609
 9427SOL    HW129731   2.954   4.817   3.354  0.3759  0.9792  0.0173
 9427SOL    HW229732   3.082   4.821   3.436  0.4476 -0.8331  0.0214
 9428SOL     OW29733   2.117   2.929   5.489 -0.5896  0.2156  0.0140
 9428SOL    HW129734   2.154   2.963   5.570  3.1056 -2.5341 -0.2737
 9428SOL    HW229735   2.063   2.855   5.517  1.1243 -1.0754  0.0259
 9429SOL     OW29736   5.207   5.611   6.007 -0.7572 -0.0509  0.0028
 9429SOL    HW129737   5.139   5.623   6.074 -2.1300 -0.5226 -1.2422
 9429SOL    HW229738   5.162   5.628   5.924  1.3377  2.3767 -0.7497
 9430SOL     OW29739   3.380   0.910   5.064  0.7108 -0.1490  0.3518
 9430SOL    HW129740   3.374   0.882   4.973  1.3935 -0.4699  0.4029
 9430SOL    HW229741   3.361   0.831   5.115 -1.1185  0.3426  0.5059
 9431SOL     OW29742   0.980   1.233   2.021  0.2422 -0.6250 -0.5447
 9431SOL    HW129743   0.886   1.238   2.035  0.0782  0.4440 -1.8197
 9431SOL    HW229744   1.018   1.282   2.094 -0.1345 -1.4329  0.2212
 9432SOL     OW29745   4.838   5.157   4.877 -0.0436  0.1706  0.0936
 9432SOL    HW129746   4.921   5.178   4.919  0.6385 -2.5654  0.2924
 9432SOL    HW229747   4.821   5.066   4.901 -2.0096 -0.0340 -1.7510
 9433SOL     OW29748   3.691   1.173   1.038 -0.2867  0.5528  0.5242
 9433SOL    HW129749   3.757   1.143   1.100 -0.1921  0.5004  0.3969
 9433SOL    HW229750   3.699   1.269   1.040 -0.6584  0.5812  1.0066
 9434SOL     OW29751   0.998   3.236   5.830  0.5167  0.2397  0.0172
 9434SOL    HW129752   0.925   3.265   5.775 -2.7458 -0.5941  3.4920
 9434SOL    HW229753   1.023   3.151   5.792 -0.4874  0.4098 -1.1044
 9435SOL     OW29754   3.565   5.924   2.186 -0.3497 -0.0401  0.0661
 9435SOL    HW129755   3.488   5.908   2.131 -0.3852 -2.1196  0.6236
 9435SOL    HW229756   3.574   6.019   2.188 -1.2378  0.1495 -2.2781
 9436SOL     OW29757   6.827   6.625   2.253 -0.2184  0.7743  0.1591
 9436SOL    HW129758   6.791   6.572   2.181  0.0926  0.0217  0.5436
 9436SOL    HW229759   6.751   6.669   2.290 -0.6826 -0.3634  0.6094
 9437SOL     OW29760   6.986   6.071   2.177  0.4219 -0.3237 -0.1980
 9437SOL    HW129761   6.906   6.031   2.210  1.8913 -1.4970  2.2174
 9437SOL    HW229762   7.038   5.997   2.146  1.3132  0.2010  0.0147
 9438SOL     OW29763   1.831   6.655   0.494  0.4602  0.3388  0.2726
 9438SOL    HW129764   1.765   6.659   0.426  0.8568 -0.5710 -0.1800
 9438SOL    HW229765   1.896   6.592   0.462  0.5896 -0.2151  1.5391
 9439SOL     OW29766   1.067   2.706   0.019  0.3943  0.4306  0.4008
 9439SOL    HW129767   1.023   2.626  -0.007  0.6377  1.0444 -2.1007
 9439SOL    HW229768   1.021   2.734   0.098 -0.0713 -1.8192  0.9926
 9440SOL     OW29769   0.575   4.530   0.253  0.1087  0.1332  0.6150
 9440SOL    HW129770   0.619   4.614   0.246  0.9586 -0.2527  1.2002
 9440SOL    HW229771   0.643   4.465   0.236 -0.6461 -0.4411 -0.3546
 9441SOL     OW29772   4.312   0.139   4.834  0.0216 -0.3520 -0.3050
 9441SOL    HW129773   4.229   0.143   4.785 -0.1361  0.1002 -0.0044
 9441SOL    HW229774   4.323   0.227   4.869 -0.9101 -1.1514  2.1931
 9442SOL     OW29775   5.024   5.594   2.240  0.5974 -0.3339  0.1985
 9442SOL    HW129776   4.961   5.532   2.277  0.7516  1.1330  3.1959
 9442SOL    HW229777   5.109   5.552   2.252  0.5456 -0.4298  0.2306
 9443SOL     OW29778   4.088   3.353   0.050 -0.3382  0.1776  0.0632
 9443SOL    HW129779   4.040   3.415   0.104 -0.6061  0.0446 -0.0208
 9443SOL    HW229780   4.180   3.372   0.067 -0.4137  0.8392 -0.2298
 9444SOL     OW29781   1.839   4.308   5.121 -0.5944  0.1698  0.6368
 9444SOL    HW129782   1.841   4.299   5.217  1.2217  0.8884  0.6969
 9444SOL    HW229783   1.867   4.222   5.088 -1.8260 -0.2800  0.7064
 9445SOL     OW29784   2.785   6.353   6.461  0.3079  0.1341  0.0862
 9445SOL    HW129785   2.712   6.391   6.412  0.8386  1.1076  0.0314
 9445SOL    HW229786   2.804   6.271   6.416  0.9216  1.1032 -1.4972
 9446SOL     OW29787   0.123   2.386   5.481  0.0792 -0.1785 -0.4965
 9446SOL    HW129788   0.106   2.453   5.547 -2.3001  0.8891 -2.0809
 9446SOL    HW229789   0.218   2.376   5.481  0.3751  2.0645  0.8723
 9447SOL     OW29790   6.326   3.195   6.674  0.3152 -0.6747  0.2121
 9447SOL    HW129791   6.240   3.177   6.636  0.2125 -0.4619  0.3380
 9447SOL    HW229792   6.325   3.151   6.758 -0.2397  0.5455  0.8778
 9448SOL     OW29793   3.512   2.787   6.427 -0.8919  0.0665  0.5531
 9448SOL    HW129794   3.459   2.723   6.380 -2.0527  0.4528  1.2893
 9448SOL    HW229795   3.562   2.832   6.359 -0.6520 -1.0824 -0.0460
 9449SOL     OW29796   4.924   2.543   3.400 -0.2096  0.3131  0.0631
 9449SOL    HW129797   4.891   2.457   3.372  0.5226  0.3587 -0.9797
 9449SOL    HW229798   4.907   2.600   3.326  3.0482  0.1313 -0.9393
 9450SOL     OW29799   4.030   5.781   4.154  0.4171 -0.1742 -0.1796
 9450SOL    HW129800   4.064   5.859   4.109  1.0333  0.5094  1.3981
 9450SOL    HW229801   3.952   5.812   4.200  0.2192 -0.6859 -0.1605
 9451SOL     OW29802   0.180   0.030   4.023 -0.1028  0.0333 -0.4242
 9451SOL    HW129803   0.124   0.096   3.984  0.1040  0.1306 -0.5611
 9451SOL    HW229804   0.211  -0.022   3.949  2.2389  1.7071 -0.7355
 9452SOL     OW29805   0.212   4.498   0.781  0.0932  0.3908 -0.1448
 9452SOL    HW129806   0.177   4.570   0.834  1.4228  0.4273  0.7533
 9452SOL    HW229807   0.307   4.511   0.784  0.4988 -2.1255  1.2035
 9453SOL     OW29808   1.244   4.092   4.195  0.2750 -0.0633  0.5114
 9453SOL    HW129809   1.278   4.104   4.107  0.8545  0.2357  0.7678
 9453SOL    HW229810   1.318   4.114   4.252  0.1354 -0.9825  1.0575
 9454SOL     OW29811   4.559   0.079   3.637 -0.1383 -0.1685 -0.3165
 9454SOL    HW129812   4.510   0.027   3.573 -0.8411 -0.4296  0.4123
 9454SOL    HW229813   4.646   0.089   3.598  0.5434 -3.2146  0.1780
 9455SOL     OW29814   2.622   0.812   5.613  0.2442 -0.0390 -0.6455
 9455SOL    HW129815   2.609   0.790   5.706 -0.7097 -1.0933 -1.0043
 9455SOL    HW229816   2.706   0.773   5.591 -0.9973 -2.7393 -1.0322
 9456SOL     OW29817   5.928   1.471   6.573 -1.0347  0.0577 -0.0384
 9456SOL    HW129818   5.883   1.405   6.521 -2.3916 -0.2609  1.4537
 9456SOL    HW229819   5.939   1.430   6.659  2.4265  0.0209 -0.3751
 9457SOL     OW29820   4.376   6.881   1.145  0.2128 -0.2032  0.3142
 9457SOL    HW129821   4.458   6.920   1.116  0.5536  1.1078  2.7281
 9457SOL    HW229822   4.402   6.801   1.190 -0.1182 -1.1975 -1.2180
 9458SOL     OW29823   0.710   5.976   2.941 -0.1715 -0.1251 -0.5675
 9458SOL    HW129824   0.654   6.015   2.874 -2.0770  0.9073  1.4959
 9458SOL    HW229825   0.749   6.050   2.987 -0.3374 -0.7365  0.5992
 9459SOL     OW29826   1.732   4.123   3.003 -0.1851  0.2190 -0.0730
 9459SOL    HW129827   1.707   4.096   2.914  2.3118 -2.5688 -0.0811
 9459SOL    HW229828   1.685   4.062   3.060  3.7064 -3.1681  0.0132
 9460SOL     OW29829   2.284   3.455   3.418  0.2933 -0.2730 -0.0152
 9460SOL    HW129830   2.242   3.454   3.505 -2.3216  2.5615 -1.0532
 9460SOL    HW229831   2.228   3.400   3.364 -0.9449  1.7713 -0.9113
 9461SOL     OW29832   5.915   4.549   1.159  0.5181 -0.3588 -0.1611
 9461SOL    HW129833   5.996   4.506   1.131  0.9620  0.2213  0.2068
 9461SOL    HW229834   5.902   4.619   1.095  0.6295 -0.0768  0.1263
 9462SOL     OW29835   3.951   4.176   6.585 -0.4093  0.5597  0.1244
 9462SOL    HW129836   3.975   4.265   6.610 -1.9520  0.7407  1.1040
 9462SOL    HW229837   3.934   4.132   6.668 -0.4930 -0.4110 -0.3970
 9463SOL     OW29838   3.975   4.978   3.102  0.0509  0.3261  0.2468
 9463SOL    HW129839   4.018   5.052   3.144 -0.3347  0.4790  0.3733
 9463SOL    HW229840   4.003   4.902   3.153  1.3908  0.2225 -0.5832
 9464SOL     OW29841   5.558   5.070   1.305 -0.3264 -0.1271 -0.0819
 9464SOL    HW129842   5.492   5.139   1.304 -1.1491 -0.8981 -0.0849
 9464SOL    HW229843   5.543   5.021   1.224 -1.3814 -1.7905  1.0443
 9465SOL     OW29844   0.671   1.725   3.923 -0.2412 -0.0695  0.0970
 9465SOL    HW129845   0.729   1.650   3.937 -0.6339 -0.5919 -0.9613
 9465SOL    HW229846   0.678   1.744   3.829 -0.5327  0.9114  0.2563
 9466SOL     OW29847   0.591   6.318   6.403  0.4062 -0.1163  0.1197
 9466SOL    HW129848   0.615   6.226   6.414  0.5130  0.0764  1.7034
 9466SOL    HW229849   0.603   6.335   6.310 -0.5925 -1.9708 -0.3858
 9467SOL     OW29850   6.870   1.981   5.310 -0.0933  0.5585 -0.4667
 9467SOL    HW129851   6.782   1.965   5.275 -0.3661 -0.2227  0.5378
 9467SOL    HW229852   6.892   1.901   5.358 -0.3783  2.1314  2.4937
 9468SOL     OW29853   4.964   6.340   5.313 -0.1709  0.4082  0.6634
 9468SOL    HW129854   4.960   6.246   5.296 -0.1127  0.9393 -3.1474
 9468SOL    HW229855   4.872   6.365   5.326 -0.1179 -0.2311  2.4910
 9469SOL     OW29856   2.106   4.730   3.591 -0.4919  0.1641  0.4742
 9469SOL    HW129857   2.170   4.714   3.660 -0.4530 -0.5372  0.2867
 9469SOL    HW229858   2.046   4.655   3.596 -1.3348  0.8396  0.6852
 9470SOL     OW29859   1.822   6.298   4.965  0.6060  0.3608 -0.3588
 9470SOL    HW129860   1.743   6.308   5.017  0.8856 -1.8872  0.6298
 9470SOL    HW229861   1.805   6.223   4.909  1.1692  1.3478 -1.9185
 9471SOL     OW29862   5.399   3.164   6.090 -0.1403 -0.0884  0.0877
 9471SOL    HW129863   5.310   3.158   6.058  0.4559 -0.7211 -1.5257
 9471SOL    HW229864   5.442   3.084   6.060  1.0678  0.3672  0.5083
 9472SOL     OW29865   1.116   3.171   3.763  0.3522 -0.2466  0.2197
 9472SOL    HW129866   1.137   3.158   3.856 -0.6544  1.2881  0.7142
 9472SOL    HW229867   1.146   3.260   3.745  1.2999 -0.8256 -1.1875
 9473SOL     OW29868   3.514   7.061   2.520 -0.2270 -0.1546  0.1283
 9473SOL    HW129869   3.534   7.057   2.613 -0.6356  0.0102  0.2215
 9473SOL    HW229870   3.578   7.123   2.484 -0.2443 -0.0161  0.3409
 9474SOL     OW29871   6.729   6.086   7.127  0.1954 -0.9906  0.2652
 9474SOL    HW129872   6.658   6.131   7.174 -0.0093 -1.5322  0.4755
 9474SOL    HW229873   6.808   6.108   7.178  0.4784  1.0430 -0.9296
 9475SOL     OW29874   3.080   3.474   3.754  0.3775  0.5670  0.4260
 9475SOL    HW129875   3.076   3.567   3.777 -1.7227  0.6988 -0.1882
 9475SOL    HW229876   2.989   3.451   3.735  0.8168 -1.6850  0.7827
 9476SOL     OW29877   7.094   6.401   2.199 -0.3726 -0.2470  0.6979
 9476SOL    HW129878   7.075   6.457   2.123  2.3062 -0.6785 -0.4308
 9476SOL    HW229879   7.083   6.312   2.165 -0.4564 -0.4382  1.2275
 9477SOL     OW29880   3.189   6.588   6.677 -0.5885  0.3592 -0.5061
 9477SOL    HW129881   3.104   6.563   6.641 -0.0942  0.6876 -1.9735
 9477SOL    HW229882   3.251   6.529   6.634 -0.1318 -0.4063  1.1332
 9478SOL     OW29883   0.628   6.277   2.528 -0.0608 -0.1872 -0.0483
 9478SOL    HW129884   0.631   6.355   2.474  1.7981 -0.1683  0.0109
 9478SOL    HW229885   0.649   6.205   2.469  0.9714 -0.2842  0.4005
 9479SOL     OW29886   5.162   0.487   4.357  0.2050  0.1860  0.5506
 9479SOL    HW129887   5.191   0.437   4.281 -0.2876  1.6805 -0.6824
 9479SOL    HW229888   5.234   0.479   4.420  0.7683 -0.8013 -0.1933
 9480SOL     OW29889   0.942   7.018   0.126  0.4719  0.3802 -0.1207
 9480SOL    HW129890   0.983   7.104   0.135  1.0419  0.2781 -1.5399
 9480SOL    HW229891   0.898   7.021   0.041  1.4977 -1.1112 -0.7553
 9481SOL     OW29892   0.357   6.288   4.210 -0.2521 -0.0310  0.4340
 9481SOL    HW129893   0.329   6.337   4.133 -1.5252 -2.3857 -0.6934
 9481SOL    HW229894   0.336   6.345   4.284 -0.8562  1.4517 -0.8322
 9482SOL     OW29895   4.073   6.910   2.966  0.3062 -0.2332 -0.1687
 9482SOL    HW129896   4.164   6.940   2.959 -0.2663  1.5465 -0.5996
 9482SOL    HW229897   4.043   6.902   2.876  0.1371 -1.2463 -0.0399
 9483SOL     OW29898   4.282   3.823   0.810 -0.3715  0.2400  0.1471
 9483SOL    HW129899   4.366   3.839   0.852 -0.4396 -0.9386  0.7687
 9483SOL    HW229900   4.283   3.730   0.788 -1.4661  0.2311  0.0650
 9484SOL     OW29901   5.772   1.677   1.960  0.0638 -0.2425 -0.1579
 9484SOL    HW129902   5.823   1.614   2.010 -0.2255  0.5519  1.1939
 9484SOL    HW229903   5.836   1.722   1.905  0.7951  0.3973  1.1477
 9485SOL     OW29904   5.704   2.490   0.394  0.1900 -0.1050 -0.2023
 9485SOL    HW129905   5.629   2.538   0.359 -0.3967 -0.3965  0.6086
 9485SOL    HW229906   5.665   2.421   0.449  1.0117 -1.2423 -0.9917
 9486SOL     OW29907   2.452   2.763   4.319  0.3249  0.0469  0.1064
 9486SOL    HW129908   2.464   2.738   4.411  0.1417 -0.7276 -0.0664
 9486SOL    HW229909   2.357   2.771   4.308  0.2876 -0.7106 -0.2132
 9487SOL     OW29910   2.476   0.149   2.121  0.4976  0.2038 -0.5411
 9487SOL    HW129911   2.443   0.196   2.045  1.0400  3.1373  0.8675
 9487SOL    HW229912   2.556   0.106   2.091 -1.0347 -1.5637 -2.3641
 9488SOL     OW29913   6.533   3.506   3.215 -0.3329 -0.4610 -0.0529
 9488SOL    HW129914   6.524   3.590   3.261  1.3540 -1.3557  2.1209
 9488SOL    HW229915   6.548   3.443   3.285 -0.8072 -2.4957 -1.6890
 9489SOL     OW29916   1.634   3.661   1.948 -0.7697  0.1043  0.1803
 9489SOL    HW129917   1.723   3.628   1.951 -1.1757 -1.3774 -2.0437
 9489SOL    HW229918   1.632   3.719   1.872 -1.7981 -0.2268 -0.0615
 9490SOL     OW29919   2.185   6.717   3.329  0.0088  0.2457 -0.0306
 9490SOL    HW129920   2.126   6.792   3.328 -2.4449 -1.4584 -3.4861
 9490SOL    HW229921   2.272   6.755   3.319 -1.0910  2.6892 -1.3629
 9491SOL     OW29922   6.079   0.991   3.547  0.4151  0.3969  0.1235
 9491SOL    HW129923   6.020   0.920   3.520  0.6791  0.1870  0.0962
 9491SOL    HW229924   6.126   1.015   3.467  0.7055  0.2409  0.2467
 9492SOL     OW29925   1.106   4.639   4.684 -0.5298 -0.1391  0.2295
 9492SOL    HW129926   1.064   4.601   4.607 -1.4180 -1.4217  1.3140
 9492SOL    HW229927   1.193   4.665   4.653  0.5712 -3.9815 -0.3967
 9493SOL     OW29928   3.668   6.955   0.384 -0.1131 -0.2574 -0.3302
 9493SOL    HW129929   3.747   6.901   0.384 -1.1596 -1.8606 -0.2121
 9493SOL    HW229930   3.647   6.967   0.291 -0.6538 -1.2903 -0.3584
 9494SOL     OW29931   3.262   2.990   4.786 -0.0988  0.6217  0.0859
 9494SOL    HW129932   3.195   3.048   4.751  0.8803  1.2954 -0.7213
 9494SOL    HW229933   3.255   3.000   4.881 -1.8105 -0.1163  0.0645
 9495SOL     OW29934   1.737   5.844   4.496 -0.2421 -0.3014  0.1171
 9495SOL    HW129935   1.649   5.873   4.519  0.1599 -0.0801  1.4633
 9495SOL    HW229936   1.762   5.784   4.567  0.2751 -1.2258 -0.8231
 9496SOL     OW29937   6.965   0.086   3.989 -0.0230 -0.0620 -0.1705
 9496SOL    HW129938   6.954   0.146   3.915 -0.5577  1.3149  0.9695
 9496SOL    HW229939   6.880   0.088   4.033  0.8416  0.7041  1.5725
 9497SOL     OW29940   4.075   2.461   3.592  0.0581 -0.3854 -0.3246
 9497SOL    HW129941   3.999   2.408   3.566  0.0570 -0.8388  0.5428
 9497SOL    HW229942   4.077   2.534   3.530 -1.6350  0.1378  0.1951
 9498SOL     OW29943   6.387   6.443   6.602  0.7167  0.1777 -0.1070
 9498SOL    HW129944   6.450   6.378   6.571  0.2495  0.1304 -0.9878
 9498SOL    HW229945   6.303   6.416   6.564  0.6471  1.7146 -1.1499
 9499SOL     OW29946   4.345   3.082   1.001 -0.1036 -0.4127  0.1550
 9499SOL    HW129947   4.311   3.001   0.963 -1.1662 -0.0788  0.3653
 9499SOL    HW229948   4.402   3.052   1.072 -0.2427 -0.9796  0.0348
 9500SOL     OW29949   3.143   1.700   6.912  0.7969  0.7731  0.1107
 9500SOL    HW129950   3.233   1.727   6.932  0.9122 -0.0135  0.7041
 9500SOL    HW229951   3.127   1.733   6.824  1.1652  2.1541  0.5329
 9501SOL     OW29952   1.513   2.391   3.760 -0.0238 -0.3834 -0.6710
 9501SOL    HW129953   1.557   2.350   3.834 -0.6466 -0.7948 -0.5245
 9501SOL    HW229954   1.475   2.319   3.711  0.4905 -0.1214 -1.4686
 9502SOL     OW29955   0.554   4.789   3.926  0.2499  0.3432 -0.1084
 9502SOL    HW129956   0.487   4.852   3.953 -0.9571 -0.5135 -1.0300
 9502SOL    HW229957   0.616   4.841   3.875 -0.7533  0.7945 -0.9064
 9503SOL     OW29958   0.100   0.987   3.873 -0.2556 -0.0759 -0.1141
 9503SOL    HW129959   0.094   1.076   3.839 -2.2848  0.3055  1.0392
 9503SOL    HW229960   0.123   0.998   3.966  0.2808 -0.7970 -0.1558
 9504SOL     OW29961   3.625   1.023   5.030  0.0405 -0.2329  0.6563
 9504SOL    HW129962   3.675   0.972   5.093  1.0631  0.0439  0.0843
 9504SOL    HW229963   3.534   0.998   5.047  0.4687 -1.9360  0.6557
 9505SOL     OW29964   2.694   1.247   3.991  0.1772  0.3249 -0.3103
 9505SOL    HW129965   2.641   1.168   3.978  0.8109 -0.2599  0.5036
 9505SOL    HW229966   2.756   1.247   3.918  0.7687 -0.4488  0.1728
 9506SOL     OW29967   0.276   2.258   4.715 -0.7866  0.2550  0.3385
 9506SOL    HW129968   0.336   2.328   4.689  1.5541 -1.5913  0.3958
 9506SOL    HW229969   0.247   2.283   4.803  2.5496 -0.2684  1.7330
 9507SOL     OW29970   1.084   1.561   4.115  0.0514 -0.1693  0.0876
 9507SOL    HW129971   1.057   1.617   4.042  0.0959  1.9559  1.6004
 9507SOL    HW229972   1.122   1.483   4.074  1.3306  1.5406 -2.1794
 9508SOL     OW29973   3.622   3.538   3.696 -0.1637  0.4633 -0.0375
 9508SOL    HW129974   3.579   3.517   3.779 -1.7424  2.3213 -0.2984
 9508SOL    HW229975   3.683   3.608   3.718 -0.1259  0.5242 -0.3328
 9509SOL     OW29976   6.896   0.729   2.461 -0.7317  0.2282 -0.1432
 9509SOL    HW129977   6.826   0.710   2.524 -0.3693 -0.0604  0.1734
 9509SOL    HW229978   6.919   0.820   2.478 -1.9541  0.7644 -1.1576
 9510SOL     OW29979   2.827   3.489   0.300  0.1978 -0.0461  0.6625
 9510SOL    HW129980   2.803   3.428   0.370  0.3273 -1.1752 -0.2407
 9510SOL    HW229981   2.747   3.538   0.282 -1.0706 -2.4879 -1.0502
 9511SOL     OW29982   3.168   5.483   6.205 -0.3475  0.4070 -0.0061
 9511SOL    HW129983   3.140   5.574   6.197 -1.4791 -0.0328 -1.5388
 9511SOL    HW229984   3.112   5.447   6.274  0.2500  0.9009  0.7549
 9512SOL     OW29985   6.828   3.493   4.692 -0.4173  0.1669 -0.7291
 9512SOL    HW129986   6.761   3.431   4.720  1.3046 -2.0024 -1.1946
 9512SOL    HW229987   6.899   3.439   4.659  2.1065  2.2922  0.8028
 9513SOL     OW29988   5.728   1.442   0.412 -0.3710 -0.0834 -0.2758
 9513SOL    HW129989   5.714   1.359   0.365  0.0018 -0.0606 -0.4312
 9513SOL    HW229990   5.661   1.501   0.377 -0.5445 -0.2745 -0.2712
 9514SOL     OW29991   1.116   5.846   2.549 -0.2517  0.1276 -0.0400
 9514SOL    HW129992   1.030   5.833   2.508  0.5312 -0.4665 -1.5900
 9514SOL    HW229993   1.100   5.910   2.618 -2.2887 -1.3634  0.9858
 9515SOL     OW29994   0.171   7.061   2.680 -0.1824 -0.1363 -0.3804
 9515SOL    HW129995   0.094   7.053   2.623 -1.1723 -3.8935  1.1425
 9515SOL    HW229996   0.136   7.061   2.769  1.4947  0.3592  0.3203
 9516SOL     OW29997   3.881   1.482   2.045  0.9762 -0.1838  0.4861
 9516SOL    HW129998   3.911   1.554   1.990  0.2062 -1.4453 -1.6998
 9516SOL    HW229999   3.813   1.520   2.100  0.5925  0.7849 -0.6194
 9517SOL     OW30000   2.608   1.058   0.979  0.2893  0.2602  0.3981
 9517SOL    HW130001   2.607   0.963   0.977  1.1927  0.2258  1.1080
 9517SOL    HW230002   2.694   1.082   0.946 -0.5525  0.9083 -1.4621
 9518SOL     OW30003   3.761   6.071   1.860  0.0877  0.6207  0.2405
 9518SOL    HW130004   3.758   6.090   1.953 -1.1654  0.4692  0.2566
 9518SOL    HW230005   3.853   6.076   1.836  0.2841  2.1357  1.1870
 9519SOL     OW30006   1.814   2.877   1.355 -0.4526 -0.6267 -0.8161
 9519SOL    HW130007   1.851   2.850   1.271  1.1324  0.1503 -0.4166
 9519SOL    HW230008   1.824   2.973   1.355  1.9342 -0.7835  1.2377
 9520SOL     OW30009   0.235   0.081   4.978  0.3191 -0.1806  0.0096
 9520SOL    HW130010   0.290   0.044   4.909 -0.4482  0.5685 -1.0119
 9520SOL    HW230011   0.179   0.009   5.005  0.3490 -0.3675 -0.4189
 9521SOL     OW30012   3.095   5.434   1.054  0.3825 -0.2131  0.2897
 9521SOL    HW130013   3.023   5.377   1.080 -1.1451 -0.4801 -3.7895
 9521SOL    HW230014   3.169   5.373   1.042  0.6765 -0.2823  2.1921
 9522SOL     OW30015   5.558   4.888   6.134 -0.2127  0.6721 -0.3882
 9522SOL    HW130016   5.559   4.806   6.084 -1.1093  0.6855 -0.4485
 9522SOL    HW230017   5.490   4.941   6.092 -1.8238  0.2369  1.5107
 9523SOL     OW30018   5.299   5.232   3.275 -0.1580  0.4409  0.1835
 9523SOL    HW130019   5.351   5.294   3.225  1.1358  0.4415  1.4558
 9523SOL    HW230020   5.257   5.176   3.209  0.2418  1.4061 -0.9090
 9524SOL     OW30021   0.209   3.577   2.336 -0.3678 -0.5641  0.7526
 9524SOL    HW130022   0.122   3.607   2.308 -0.3245  1.1890  2.2768
 9524SOL    HW230023   0.209   3.589   2.432  1.6511 -0.1562  0.7587
 9525SOL     OW30024   4.214   4.759   6.041 -0.2788  0.1290  0.0839
 9525SOL    HW130025   4.183   4.696   6.106  1.0106 -2.3852 -1.5466
 9525SOL    HW230026   4.298   4.790   6.075 -0.3187 -0.0235  0.3238
 9526SOL     OW30027   6.465   6.252   3.828 -0.2253  0.2782 -0.3985
 9526SOL    HW130028   6.503   6.213   3.907  0.3372 -1.1573 -1.3486
 9526SOL    HW230029   6.536   6.255   3.765 -1.5476 -2.3394 -2.1803
 9527SOL     OW30030   5.851   6.792   0.472  0.0317  0.4132  0.1621
 9527SOL    HW130031   5.901   6.863   0.432  0.8959 -0.2794 -0.0104
 9527SOL    HW230032   5.779   6.775   0.411  0.5301  0.3188 -0.4096
 9528SOL     OW30033   1.698   5.964   2.860 -0.2060  0.0724  0.1565
 9528SOL    HW130034   1.635   5.962   2.932 -0.6618 -0.1803 -0.2441
 9528SOL    HW230035   1.783   5.952   2.902 -0.5052 -0.4954  0.6158
 9529SOL     OW30036   1.977   4.147   0.067  0.6677  0.2103 -0.1195
 9529SOL    HW130037   2.068   4.123   0.049  0.4283 -0.4975 -0.3963
 9529SOL    HW230038   1.981   4.241   0.085  1.3954  0.2743 -0.5531
 9530SOL     OW30039   5.736   2.731   6.041 -0.5378 -0.0262 -0.2118
 9530SOL    HW130040   5.796   2.747   5.969 -1.1138  3.2369 -0.0840
 9530SOL    HW230041   5.792   2.723   6.118 -0.0878  4.0995  0.1012
 9531SOL     OW30042   1.893   3.824   6.405  0.3451 -0.1764 -0.1743
 9531SOL    HW130043   1.821   3.822   6.342  0.3659 -0.2441 -0.1958
 9531SOL    HW230044   1.968   3.854   6.354  0.6363 -1.3490 -0.4582
 9532SOL     OW30045   2.686   5.710   6.849  0.0572 -0.3416 -0.0974
 9532SOL    HW130046   2.593   5.688   6.857 -0.0325  0.6201  3.0832
 9532SOL    HW230047   2.687   5.805   6.842  0.7821 -0.3454 -0.0856
 9533SOL     OW30048   3.318   2.601   4.906  0.1334  0.0501 -0.4197
 9533SOL    HW130049   3.363   2.525   4.942  0.4061  0.0013 -0.8656
 9533SOL    HW230050   3.385   2.649   4.859 -0.6756 -1.1168 -2.9051
 9534SOL     OW30051   4.864   1.011   4.653  0.5980 -0.0445 -0.2660
 9534SOL    HW130052   4.846   0.922   4.682  0.8006  0.1841  0.5794
 9534SOL    HW230053   4.779   1.055   4.657  1.0023  0.6425  2.3476
 9535SOL     OW30054   0.071   1.419   1.803  0.1077 -0.3949  0.3625
 9535SOL    HW130055   0.129   1.406   1.877  0.8618  1.1876  0.0872
 9535SOL    HW230056   0.064   1.333   1.761  0.9056 -0.9536  1.3646
 9536SOL     OW30057   6.616   5.034   4.172  0.1335  0.1308  0.2987
 9536SOL    HW130058   6.652   5.021   4.259 -0.0081 -1.0763  0.1861
 9536SOL    HW230059   6.693   5.039   4.115  0.1947  0.0678  0.3763
 9537SOL     OW30060   6.619   5.221   1.044  0.0375 -0.1226 -0.2496
 9537SOL    HW130061   6.694   5.269   1.079 -0.2094 -1.0359  1.6616
 9537SOL    HW230062   6.543   5.267   1.079 -0.2773  0.0586 -1.1531
 9538SOL     OW30063   2.454   4.998   3.555  0.3349 -0.7252 -0.1021
 9538SOL    HW130064   2.545   4.971   3.543  0.4664 -1.8349  2.6980
 9538SOL    HW230065   2.412   4.922   3.595 -1.2195  0.5858  0.8768
 9539SOL     OW30066   2.339   1.213   3.650 -0.2353 -0.4454  0.4988
 9539SOL    HW130067   2.263   1.270   3.640  0.0786 -0.1863 -0.4919
 9539SOL    HW230068   2.334   1.182   3.741 -0.3407  1.2854  1.1189
 9540SOL     OW30069   4.098   4.688   1.456 -0.4006 -0.5799  0.2106
 9540SOL    HW130070   4.026   4.651   1.506 -0.0278 -1.1334  0.3448
 9540SOL    HW230071   4.072   4.779   1.440 -1.2464 -0.8479  0.0231
 9541SOL     OW30072   2.676   3.184   1.304 -0.1910 -0.6227  0.1828
 9541SOL    HW130073   2.615   3.235   1.357 -0.8856  0.7444 -1.8378
 9541SOL    HW230074   2.621   3.137   1.242  0.7428  1.1882 -2.1684
 9542SOL     OW30075   4.608   5.766   5.612 -0.4826  0.2100 -0.1037
 9542SOL    HW130076   4.600   5.844   5.668 -2.2841  1.6454 -2.1939
 9542SOL    HW230077   4.531   5.714   5.632 -0.0279 -0.3359  0.2450
 9543SOL     OW30078   6.487   4.648   0.602  0.0587  0.0107 -0.2345
 9543SOL    HW130079   6.394   4.630   0.590  0.1080 -1.4831  1.2690
 9543SOL    HW230080   6.492   4.689   0.688  0.7900  0.1453 -0.3367
 9544SOL     OW30081   4.175   0.520   6.200 -0.7921  0.5424 -0.0297
 9544SOL    HW130082   4.217   0.493   6.119 -1.1258 -3.2764  0.8507
 9544SOL    HW230083   4.102   0.575   6.172 -0.5765 -0.2035 -2.2683
 9545SOL     OW30084   1.592   0.060   1.640  0.0695 -0.1810 -0.7195
 9545SOL    HW130085   1.676   0.106   1.647 -0.2761  0.5083 -1.0205
 9545SOL    HW230086   1.610  -0.028   1.674  1.0565 -0.2217 -1.3163
 9546SOL     OW30087   5.741   5.054   5.071  0.0726 -0.6205  0.3589
 9546SOL    HW130088   5.819   5.087   5.026  0.7255 -1.3672  0.9027
 9546SOL    HW230089   5.729   4.966   5.036 -1.4300  0.0211 -0.8097
 9547SOL     OW30090   5.937   6.111   4.042 -0.2336 -0.5303 -0.8858
 9547SOL    HW130091   5.931   6.200   4.009  1.0861 -0.5890 -1.3532
 9547SOL    HW230092   5.955   6.121   4.136  0.7601 -0.2672 -1.0872
 9548SOL     OW30093   3.631   1.105   4.734  0.1270 -0.1594  0.7710
 9548SOL    HW130094   3.619   1.099   4.828  0.3892  1.8841  0.9779
 9548SOL    HW230095   3.551   1.067   4.697 -1.2770  1.5866  1.8769
 9549SOL     OW30096   2.242   4.154   0.010 -0.1575 -0.2406  0.4289
 9549SOL    HW130097   2.256   4.183  -0.080 -0.6022  0.0801  0.4610
 9549SOL    HW230098   2.276   4.064   0.011 -0.9196 -0.5541 -0.2859
 9550SOL     OW30099   6.914   1.612   4.463 -0.5291  0.5199 -0.9722
 9550SOL    HW130100   6.819   1.621   4.474 -0.6154 -0.5788 -0.7011
 9550SOL    HW230101   6.951   1.657   4.540 -0.9188 -0.9499  0.1157
 9551SOL     OW30102   0.851   1.615   5.235  0.0643 -0.1433 -0.4686
 9551SOL    HW130103   0.923   1.678   5.245  0.8685 -0.9882 -0.7446
 9551SOL    HW230104   0.778   1.667   5.203  1.3141  0.3613 -2.7348
 9552SOL     OW30105   3.320   3.642   2.087 -0.2208 -0.8609  1.0270
 9552SOL    HW130106   3.291   3.557   2.122 -0.8630 -1.9069 -1.7685
 9552SOL    HW230107   3.333   3.626   1.993 -0.1870  2.0963  0.4326
 9553SOL     OW30108   0.576   4.842   2.892  0.8079 -0.2872  0.6564
 9553SOL    HW130109   0.660   4.842   2.846  0.1615  0.3097 -0.5982
 9553SOL    HW230110   0.563   4.751   2.918  1.3537 -0.5960 -0.0921
 9554SOL     OW30111   1.749   2.655   3.298 -0.0777 -0.7517  0.1238
 9554SOL    HW130112   1.673   2.623   3.346 -1.8283  1.3834 -1.0586
 9554SOL    HW230113   1.755   2.747   3.323 -0.6740  0.2840 -3.1429
 9555SOL     OW30114   1.738   6.540   3.841  0.6329 -0.3958  0.6477
 9555SOL    HW130115   1.833   6.546   3.841  0.8891 -2.7243  3.0917
 9555SOL    HW230116   1.720   6.447   3.834 -1.5822  0.0771 -1.2210
 9556SOL     OW30117   7.030   6.212   2.427 -1.2025 -0.6720  0.4117
 9556SOL    HW130118   7.039   6.155   2.351 -0.8189 -0.8459  0.5822
 9556SOL    HW230119   6.938   6.238   2.427 -0.6750  1.5081 -1.6631
 9557SOL     OW30120   4.371   1.475   4.973 -0.1176 -0.0676  0.4638
 9557SOL    HW130121   4.288   1.446   5.013 -0.2543  0.9833  0.9800
 9557SOL    HW230122   4.413   1.526   5.042 -0.9708  2.9407 -1.0855
 9558SOL     OW30123   5.071   5.815   4.784 -0.8353 -0.2373  0.4252
 9558SOL    HW130124   5.055   5.860   4.701 -1.9143 -0.0295  0.7281
 9558SOL    HW230125   5.161   5.783   4.778 -0.9422 -0.3280 -0.8768
 9559SOL     OW30126   5.656   2.972   5.317  0.3088 -0.1791  0.2580
 9559SOL    HW130127   5.605   3.052   5.330 -0.7873 -0.4467 -2.0584
 9559SOL    HW230128   5.715   2.970   5.393 -0.6441  2.0211  1.1581
 9560SOL     OW30129   0.241   4.304   3.423 -0.1605  0.0019  0.0175
 9560SOL    HW130130   0.231   4.211   3.404 -0.3076 -0.0577  0.3792
 9560SOL    HW230131   0.294   4.307   3.503 -0.8217  0.1986  0.4593
 9561SOL     OW30132   4.021   2.241   6.384  0.3990  0.0641  0.3113
 9561SOL    HW130133   4.075   2.309   6.424  1.9803  0.0277 -1.6108
 9561SOL    HW230134   4.066   2.159   6.404  0.2510 -0.1148 -0.0697
 9562SOL     OW30135   1.474   1.525   4.344  0.5759  0.6893  0.1325
 9562SOL    HW130136   1.499   1.550   4.256 -0.0728  0.1252 -0.2205
 9562SOL    HW230137   1.459   1.608   4.389  0.5623  0.9746 -0.3919
 9563SOL     OW30138   6.121   0.529   0.765  0.0337  0.3787 -0.3022
 9563SOL    HW130139   6.177   0.584   0.820  0.0680  0.8655 -0.8200
 9563SOL    HW230140   6.178   0.457   0.738  0.0316  0.1679  0.2575
 9564SOL     OW30141   3.484   6.299   6.941  0.0301 -0.0761  0.7929
 9564SOL    HW130142   3.420   6.300   7.012  2.2388  0.9119  2.8928
 9564SOL    HW230143   3.538   6.222   6.960 -0.6428 -1.0859 -1.1327
 9565SOL     OW30144   5.108   4.722   1.493  0.3980  0.6298 -0.1979
 9565SOL    HW130145   5.057   4.641   1.500 -0.0745  0.7939 -1.4022
 9565SOL    HW230146   5.072   4.766   1.415  1.9046  1.0946 -0.6639
 9566SOL     OW30147   2.215   5.101   2.128  0.0828  0.2686  0.4438
 9566SOL    HW130148   2.161   5.144   2.061 -0.6539 -0.2262  0.7059
 9566SOL    HW230149   2.231   5.013   2.093  2.1678  0.9179 -0.4147
 9567SOL     OW30150   3.811   3.243   6.915 -0.4915 -0.2368 -0.1204
 9567SOL    HW130151   3.829   3.173   6.852 -0.0079  0.4065 -0.7152
 9567SOL    HW230152   3.740   3.294   6.874  0.1041  0.4218 -0.3486
 9568SOL     OW30153   3.399   3.776   3.468 -0.0572 -0.0825 -0.4054
 9568SOL    HW130154   3.321   3.824   3.495  0.2843  0.6928 -0.7659
 9568SOL    HW230155   3.371   3.685   3.464 -0.6004  0.0254  0.7158
 9569SOL     OW30156   1.767   6.581   4.842  0.5604 -0.0191 -0.2863
 9569SOL    HW130157   1.836   6.514   4.840  1.6251  1.0551 -0.5481
 9569SOL    HW230158   1.813   6.663   4.824 -1.1440  0.4288 -3.1604
 9570SOL     OW30159   5.313   1.444   0.531 -0.3441  0.2994 -0.1393
 9570SOL    HW130160   5.293   1.466   0.622  0.0474  0.2271 -0.0344
 9570SOL    HW230161   5.229   1.452   0.486 -0.3668  1.1964  0.0537
 9571SOL     OW30162   0.312   3.459   4.350  0.1129 -0.3995  0.2391
 9571SOL    HW130163   0.292   3.505   4.269  0.1035  1.1583  1.0803
 9571SOL    HW230164   0.233   3.467   4.403 -0.3233 -2.4568 -0.0178
 9572SOL     OW30165   1.543   1.667   5.969  0.0835  0.1222  0.3618
 9572SOL    HW130166   1.503   1.656   5.882  1.7392  1.6795 -0.6571
 9572SOL    HW230167   1.489   1.733   6.012  1.5005  2.3545 -1.0781
 9573SOL     OW30168   1.570   3.267   2.136 -0.3602  0.1631  0.2813
 9573SOL    HW130169   1.596   3.244   2.046 -0.5009  2.7028 -0.4795
 9573SOL    HW230170   1.548   3.360   2.131 -0.9816  0.2066  2.8439
 9574SOL     OW30171   3.202   2.057   6.819  0.5407 -0.4205 -0.0521
 9574SOL    HW130172   3.265   1.985   6.830  1.2338  0.2700  0.6509
 9574SOL    HW230173   3.142   2.026   6.751  1.7386 -1.0488 -0.8796
 9575SOL     OW30174   2.273   6.645   5.744  0.0704 -0.2304 -0.1879
 9575SOL    HW130175   2.358   6.632   5.786  0.4608 -0.3851 -0.9990
 9575SOL    HW230176   2.210   6.611   5.807  0.6418 -0.5073  0.2460
 9576SOL     OW30177   3.101   5.726   1.197 -0.0106  0.2247  0.4907
 9576SOL    HW130178   3.085   5.674   1.119 -0.5015  1.3603 -0.1999
 9576SOL    HW230179   3.152   5.669   1.255  1.1831 -0.3222 -1.0404
 9577SOL     OW30180   3.068   4.199   5.536 -0.1912 -0.2700 -0.2090
 9577SOL    HW130181   3.070   4.291   5.511 -0.2868  0.1918  1.3317
 9577SOL    HW230182   2.989   4.190   5.590 -0.3531 -1.3291 -0.5900
 9578SOL     OW30183   6.461   6.909   1.015  0.0485 -0.3254 -0.0249
 9578SOL    HW130184   6.544   6.955   1.020 -0.7621  1.3165 -0.7446
 9578SOL    HW230185   6.484   6.816   1.014  1.9921  0.0898 -2.1348
 9579SOL     OW30186   6.445   5.601   0.950 -0.4353  0.1656 -0.2739
 9579SOL    HW130187   6.365   5.563   0.986 -0.8787  1.0413 -0.3026
 9579SOL    HW230188   6.420   5.633   0.863  0.4719 -1.3844 -1.1547
 9580SOL     OW30189   3.483   6.446   4.008  0.1631 -0.2881  0.5866
 9580SOL    HW130190   3.544   6.509   4.046  2.1747 -0.5429 -1.8960
 9580SOL    HW230191   3.498   6.365   4.057  0.1475  0.2557  1.5014
 9581SOL     OW30192   6.761   0.971   1.608 -0.0268  0.1900 -0.2431
 9581SOL    HW130193   6.735   1.039   1.669  0.4620  0.2103 -0.0594
 9581SOL    HW230194   6.767   0.891   1.661  0.1319  0.1538 -0.3133
 9582SOL     OW30195   4.789   3.010   6.146  0.3832  0.4520 -0.3658
 9582SOL    HW130196   4.851   2.939   6.164  0.4313  0.5870  0.0012
 9582SOL    HW230197   4.703   2.968   6.152  0.3698  0.6294  0.8199
 9583SOL     OW30198   0.568   3.400   4.397 -0.1777  0.0141 -0.1728
 9583SOL    HW130199   0.613   3.392   4.314  0.2955 -2.4288  0.2594
 9583SOL    HW230200   0.482   3.435   4.374 -0.0871 -0.6900 -1.6978
 9584SOL     OW30201   1.498   3.090   3.217 -0.6742 -0.0941 -0.3117
 9584SOL    HW130202   1.441   3.013   3.221  1.6825 -1.8954  2.2700
 9584SOL    HW230203   1.534   3.089   3.128 -2.1324 -0.8101 -0.9203
 9585SOL     OW30204   4.363   6.925   5.614  0.6742 -0.2873  0.0355
 9585SOL    HW130205   4.332   6.863   5.680  0.5682 -0.2607  0.0116
 9585SOL    HW230206   4.283   6.959   5.574  0.7346 -0.2143 -0.0246
 9586SOL     OW30207   3.968   2.165   5.914 -0.3067  0.3214  0.5811
 9586SOL    HW130208   4.023   2.088   5.926 -0.7102  0.0452  0.6574
 9586SOL    HW230209   3.927   2.179   5.999 -1.3024 -0.2023  0.1975
 9587SOL     OW30210   1.776   2.521   4.260 -0.0576  0.2991  0.2463
 9587SOL    HW130211   1.766   2.479   4.345 -0.6963  0.2429  0.1492
 9587SOL    HW230212   1.702   2.581   4.254 -3.0192 -3.1205 -2.2537
 9588SOL     OW30213   2.352   0.166   1.024  0.3300  0.4933  0.2269
 9588SOL    HW130214   2.443   0.188   1.004  0.3864 -0.5843 -0.8656
 9588SOL    HW230215   2.304   0.246   1.004  0.7924  0.4155 -1.3459
 9589SOL     OW30216   3.826   5.166   4.283 -0.5825  0.2634 -0.1688
 9589SOL    HW130217   3.850   5.073   4.279 -0.3717  0.2776  0.7206
 9589SOL    HW230218   3.748   5.169   4.337 -1.8891  0.3788 -1.9525
 9590SOL     OW30219   3.400   3.137   1.456 -0.5549  0.2286 -0.6301
 9590SOL    HW130220   3.443   3.093   1.383  1.0423 -2.3051  1.6017
 9590SOL    HW230221   3.468   3.193   1.494 -0.0520 -1.4322  1.0863
 9591SOL     OW30222   6.297   5.806   7.073  0.4759  0.6716  0.8024
 9591SOL    HW130223   6.209   5.805   7.110  0.6626 -0.5995  1.2501
 9591SOL    HW230224   6.299   5.884   7.018 -1.0734  0.4752  0.4304
 9592SOL     OW30225   3.057   5.122   4.544  0.3381 -0.1938  0.0175
 9592SOL    HW130226   3.140   5.118   4.496 -0.5475 -0.7622 -1.5487
 9592SOL    HW230227   3.053   5.039   4.591  1.6959  0.7945  2.0126
 9593SOL     OW30228   6.198   2.579   3.139  0.4946  0.0213  0.1910
 9593SOL    HW130229   6.118   2.617   3.174  0.6843 -0.4814  1.2140
 9593SOL    HW230230   6.207   2.618   3.052  0.5578  2.1217  1.0828
 9594SOL     OW30231   3.685   2.455   1.110 -0.3362  0.1441 -0.0745
 9594SOL    HW130232   3.639   2.396   1.170  0.4354 -1.6190 -1.1591
 9594SOL    HW230233   3.625   2.467   1.037  0.0568 -0.4573 -0.5070
 9595SOL     OW30234   5.905   5.665   6.758  0.2473 -0.0027 -0.6503
 9595SOL    HW130235   5.971   5.683   6.691  0.2467 -0.0725 -0.6704
 9595SOL    HW230236   5.956   5.633   6.833  0.6423  3.2712  0.6604
 9596SOL     OW30237   1.265   1.459   5.885 -0.2331 -0.3608 -0.2236
 9596SOL    HW130238   1.208   1.456   5.962  3.5064 -2.3604  2.8528
 9596SOL    HW230239   1.284   1.552   5.874 -1.2159  0.0170  0.9786
 9597SOL     OW30240   6.230   6.909   1.824 -0.4618  0.2181 -0.0407
 9597SOL    HW130241   6.232   6.831   1.880 -0.1238 -0.0625 -0.4318
 9597SOL    HW230242   6.158   6.893   1.763 -0.6716  0.4110  0.1568
 9598SOL     OW30243   3.724   0.467   2.245 -0.1003 -0.2434  0.5864
 9598SOL    HW130244   3.692   0.557   2.238 -0.2436 -0.0777  2.7039
 9598SOL    HW230245   3.649   0.413   2.220  0.4453  0.1749 -2.2354
 9599SOL     OW30246   0.934   3.245   2.315 -0.1574  0.2189 -0.5274
 9599SOL    HW130247   1.023   3.214   2.299 -0.6076 -1.1309 -0.6114
 9599SOL    HW230248   0.879   3.168   2.300 -1.4584  1.3096 -1.6538
 9600SOL     OW30249   5.797   6.206   1.469  0.2294  0.6343 -0.2312
 9600SOL    HW130250   5.764   6.267   1.403 -1.5670  0.6253  0.5993
 9600SOL    HW230251   5.809   6.260   1.547  0.4813  0.2780 -0.0195
 9601SOL     OW30252   2.878   5.721   3.377  0.0300 -0.6104 -0.1467
 9601SOL    HW130253   2.809   5.654   3.383  1.2285 -1.8969 -0.0909
 9601SOL    HW230254   2.945   5.681   3.321  0.5901  0.7386 -0.4675
 9602SOL     OW30255   3.203   3.202   1.092  0.0190  0.2617  0.5603
 9602SOL    HW130256   3.158   3.256   1.026 -0.6186 -1.2915 -0.3346
 9602SOL    HW230257   3.175   3.113   1.073  0.7794 -0.3715  2.2116
 9603SOL     OW30258   5.280   0.202   6.525  0.6997  0.6642 -0.2925
 9603SOL    HW130259   5.196   0.219   6.482  0.8110 -0.3750 -0.9581
 9603SOL    HW230260   5.319   0.131   6.474  1.2989  0.0841  0.9459
 9604SOL     OW30261   5.440   0.733   3.516 -0.4120  0.4445  0.6253
 9604SOL    HW130262   5.394   0.797   3.463 -2.8831 -0.5687  1.4122
 9604SOL    HW230263   5.421   0.649   3.475  0.9483 -0.0227  0.8847
 9605SOL     OW30264   5.562   7.020   2.539  0.5489 -0.6420  0.1160
 9605SOL    HW130265   5.595   6.938   2.503  1.2222  0.4752 -1.9945
 9605SOL    HW230266   5.473   7.000   2.567  1.2869 -2.4862  1.2828
 9606SOL     OW30267   5.353   0.793   0.592 -0.2411 -0.0274 -0.4966
 9606SOL    HW130268   5.282   0.749   0.545  0.8197 -1.0777 -1.1730
 9606SOL    HW230269   5.423   0.800   0.527  0.4934  0.4408  0.3303
 9607SOL     OW30270   5.578   2.684   0.053 -0.1772  0.5168  0.3623
 9607SOL    HW130271   5.561   2.590   0.044  1.1737  0.2356  0.4058
 9607SOL    HW230272   5.555   2.721  -0.032  0.7351 -0.1273 -0.1902
 9608SOL     OW30273   4.123   5.561   2.120 -0.4965  0.4554  0.1458
 9608SOL    HW130274   4.035   5.526   2.131 -0.3379  0.4641  1.5666
 9608SOL    HW230275   4.110   5.656   2.112 -0.6737  0.3785 -0.5795
 9609SOL     OW30276   1.481   6.345   1.496  0.3115  0.1177  0.0984
 9609SOL    HW130277   1.539   6.332   1.421  0.9748  0.0575  0.6105
 9609SOL    HW230278   1.393   6.333   1.461  0.5007  1.8507 -1.0385
 9610SOL     OW30279   2.849   7.003   5.029 -0.0567 -0.1724 -0.1464
 9610SOL    HW130280   2.897   7.020   4.948 -0.3999  1.0443 -0.1197
 9610SOL    HW230281   2.783   6.938   5.005 -0.9707  1.0725 -1.1967
 9611SOL     OW30282   1.346   3.404   4.556  0.3381 -0.8177 -0.3947
 9611SOL    HW130283   1.440   3.413   4.566  0.2751 -0.6374  0.0350
 9611SOL    HW230284   1.327   3.315   4.586  0.1418 -0.2626  1.2328
 9612SOL     OW30285   1.298   1.215   2.661 -0.1631 -0.2708 -0.2756
 9612SOL    HW130286   1.350   1.161   2.721  0.0759  1.1218  0.8393
 9612SOL    HW230287   1.256   1.279   2.718 -0.4193  0.7294 -1.5401
 9613SOL     OW30288   2.256   5.720   4.961  0.4495  0.1115  0.4405
 9613SOL    HW130289   2.189   5.786   4.974 -0.5232 -1.0511  1.6008
 9613SOL    HW230290   2.207   5.641   4.936  1.3881 -0.6953  1.0830
 9614SOL     OW30291   4.637   1.475   5.494  0.3142 -0.4392  0.0686
 9614SOL    HW130292   4.564   1.517   5.540  1.0074  0.3968  0.4396
 9614SOL    HW230293   4.683   1.426   5.562  1.0021  0.3201  0.1628
 9615SOL     OW30294   3.738   0.594   1.590 -0.6190 -0.0851 -0.1174
 9615SOL    HW130295   3.779   0.517   1.552  0.0404  0.1415  0.1143
 9615SOL    HW230296   3.718   0.569   1.680 -0.5042 -0.0260 -0.0746
 9616SOL     OW30297   1.984   1.776   3.501 -0.3389  0.1735  0.2343
 9616SOL    HW130298   1.992   1.795   3.595  0.7727  0.3061  0.1320
 9616SOL    HW230299   2.015   1.686   3.492  1.2526  0.7212 -0.2081
 9617SOL     OW30300   5.691   0.651   3.445 -0.4897 -0.2500 -0.5005
 9617SOL    HW130301   5.675   0.593   3.519 -0.6373  0.3760 -0.0360
 9617SOL    HW230302   5.610   0.700   3.434  0.6220  2.1598  1.1690
 9618SOL     OW30303   4.092   0.887   0.081  0.1111 -0.1247 -0.6577
 9618SOL    HW130304   4.084   0.829   0.157 -2.7153 -0.6634 -1.2520
 9618SOL    HW230305   4.145   0.961   0.113  0.2863 -1.0458  1.3551
 9619SOL     OW30306   1.933   5.293   2.236 -0.1306 -0.5224 -0.9774
 9619SOL    HW130307   1.900   5.344   2.310 -0.2490 -0.4290 -1.0927
 9619SOL    HW230308   1.958   5.359   2.172  0.8372 -0.5749 -0.6617
 9620SOL     OW30309   4.002   1.541   3.698 -0.0134 -0.4532  0.1748
 9620SOL    HW130310   3.911   1.568   3.694 -0.3124 -1.3388  0.6732
 9620SOL    HW230311   4.052   1.621   3.683 -0.8617 -0.3066 -2.4478
 9621SOL     OW30312   5.172   2.815   0.784  0.3152 -0.0089 -0.3211
 9621SOL    HW130313   5.208   2.790   0.869 -0.9707 -0.3619  0.1567
 9621SOL    HW230314   5.218   2.760   0.721  0.5963 -0.4482  0.2613
 9622SOL     OW30315   5.787   4.165   5.902  0.1458  0.6834 -0.3036
 9622SOL    HW130316   5.746   4.230   5.845 -0.5001  0.3161 -0.2614
 9622SOL    HW230317   5.852   4.215   5.952 -1.0475  1.5033  0.4669
 9623SOL     OW30318   1.585   4.244   4.975  0.7039  0.1261 -0.3248
 9623SOL    HW130319   1.633   4.291   5.044 -0.1319 -0.5850  0.7642
 9623SOL    HW230320   1.552   4.313   4.918  0.7447  0.7846  0.4287
 9624SOL     OW30321   4.240   5.596   4.221  0.1035  0.3571 -0.2920
 9624SOL    HW130322   4.169   5.661   4.211 -1.6987 -1.3243  0.8832
 9624SOL    HW230323   4.248   5.557   4.134  0.0914  1.0336 -0.6054
 9625SOL     OW30324   0.122   2.229   3.271 -0.4602  0.1631  0.4961
 9625SOL    HW130325   0.162   2.238   3.357 -0.7642  0.3295  0.6211
 9625SOL    HW230326   0.157   2.302   3.220 -0.0165 -0.1302  0.3720
 9626SOL     OW30327   0.363   6.603   1.097  0.2898  0.2638  0.0463
 9626SOL    HW130328   0.436   6.545   1.074  0.5132  0.9877 -1.1426
 9626SOL    HW230329   0.403   6.689   1.108 -0.2432  0.4677  0.4395
 9627SOL     OW30330   3.447   3.415   0.227 -0.2617  0.7585 -0.2351
 9627SOL    HW130331   3.509   3.444   0.160  0.0554 -0.6543 -0.5915
 9627SOL    HW230332   3.478   3.328   0.252 -0.9263  0.8648  1.0739
 9628SOL     OW30333   5.880   3.906   3.663 -0.1762  0.1425  0.2678
 9628SOL    HW130334   5.834   3.837   3.711 -0.2881 -2.1970 -2.8446
 9628SOL    HW230335   5.825   3.984   3.674 -2.0860 -1.2111  0.9504
 9629SOL     OW30336   5.257   5.209   2.657  0.3948 -0.1281  0.1489
 9629SOL    HW130337   5.219   5.124   2.679 -0.0664  0.0799  0.1542
 9629SOL    HW230338   5.234   5.266   2.730 -1.7791  0.7632 -1.1278
 9630SOL     OW30339   5.043   6.027   6.651 -0.5109  0.4598  0.1933
 9630SOL    HW130340   5.118   6.084   6.633 -1.4434  1.5839 -0.2812
 9630SOL    HW230341   5.062   5.989   6.737  1.2718 -0.4307 -0.5572
 9631SOL     OW30342   2.766   6.482   4.639 -0.1111 -0.0370  0.8643
 9631SOL    HW130343   2.728   6.567   4.616  1.3387  0.3159 -0.4211
 9631SOL    HW230344   2.836   6.503   4.700  1.9556  0.0544 -1.4090
 9632SOL     OW30345   6.930   2.801   6.693  1.1066  0.4632 -0.0488
 9632SOL    HW130346   6.839   2.831   6.691  0.8501 -0.2382  0.6843
 9632SOL    HW230347   6.925   2.712   6.728  1.9819  0.0403 -0.9652
 9633SOL     OW30348   3.460   0.067   4.516 -1.1132 -0.3306 -0.1866
 9633SOL    HW130349   3.455   0.012   4.594  2.5820 -0.3892  0.1686
 9633SOL    HW230350   3.438   0.155   4.548 -0.7218 -0.5383  0.7052
 9634SOL     OW30351   4.539   3.601   2.225 -0.1702 -0.5209 -1.1700
 9634SOL    HW130352   4.624   3.585   2.183  1.2799 -0.0087  1.3571
 9634SOL    HW230353   4.535   3.696   2.236 -0.5338 -0.6254 -0.3032
 9635SOL     OW30354   2.273   4.388   2.620 -0.2341 -0.7405 -0.3475
 9635SOL    HW130355   2.269   4.373   2.525  2.6514  1.2392 -0.9412
 9635SOL    HW230356   2.337   4.325   2.652 -0.6015 -0.8682  0.1421
 9636SOL     OW30357   0.418   5.417   6.371 -0.7281 -0.2003 -0.2335
 9636SOL    HW130358   0.448   5.471   6.298  0.3072 -1.7771 -1.0468
 9636SOL    HW230359   0.441   5.327   6.345  1.9401 -0.6720  3.0455
 9637SOL     OW30360   5.862   1.630   0.043  0.3398 -0.3072  0.3297
 9637SOL    HW130361   5.874   1.622   0.137 -1.2864  2.7923  0.9387
 9637SOL    HW230362   5.949   1.648   0.008  0.7911 -0.3235  1.4282
 9638SOL     OW30363   2.842   1.395   5.815 -0.1544  0.5896 -0.4532
 9638SOL    HW130364   2.865   1.328   5.879 -0.6736 -2.7204 -3.4072
 9638SOL    HW230365   2.751   1.418   5.835  0.4120  1.4623  1.3342
 9639SOL     OW30366   2.141   2.983   1.628  0.0016 -0.7797  0.7781
 9639SOL    HW130367   2.201   2.975   1.554 -1.0094 -3.6353  0.1445
 9639SOL    HW230368   2.199   2.985   1.705  1.0200  1.4702  0.0283
 9640SOL     OW30369   1.198   0.284   5.571 -0.2202  0.1678  0.3111
 9640SOL    HW130370   1.115   0.266   5.616 -0.0411  2.0041  1.4885
 9640SOL    HW230371   1.173   0.309   5.483 -0.7660 -1.0214  0.1062
 9641SOL     OW30372   2.104   4.215   5.552  0.1986 -0.2951 -0.2922
 9641SOL    HW130373   2.188   4.195   5.595 -0.8349 -2.0589  1.0463
 9641SOL    HW230374   2.126   4.227   5.460  1.8743 -1.1766 -0.0432
 9642SOL     OW30375   0.788   3.915   5.622 -0.6995  0.1882 -0.1438
 9642SOL    HW130376   0.811   3.829   5.657 -0.2253 -0.7616 -2.5732
 9642SOL    HW230377   0.752   3.896   5.535 -2.0438  2.3603 -0.1353
 9643SOL     OW30378   7.132   3.118   2.069  0.2607  0.5007 -0.6513
 9643SOL    HW130379   7.084   3.041   2.100  2.4319 -0.1729  1.2889
 9643SOL    HW230380   7.064   3.185   2.058 -1.4471 -1.1280 -0.6264
 9644SOL     OW30381   0.258   3.582   4.107  0.0794  0.0814  0.2687
 9644SOL    HW130382   0.340   3.568   4.059 -0.5184  0.5069 -0.9261
 9644SOL    HW230383   0.255   3.677   4.120  0.1775 -0.0199  1.0658
 9645SOL     OW30384   0.020   6.012   3.431 -0.2923 -0.2987 -0.4601
 9645SOL    HW130385  -0.054   6.036   3.487  1.5966  0.6812  1.7665
 9645SOL    HW230386  -0.019   5.956   3.363 -3.4561  2.2088 -0.9225
 9646SOL     OW30387   6.012   5.290   4.474  0.0151 -0.0766 -0.2793
 9646SOL    HW130388   6.076   5.361   4.480  1.7735 -1.5984 -0.1225
 9646SOL    HW230389   5.929   5.334   4.457  0.9754  2.0285  0.1514
 9647SOL     OW30390   6.702   3.719   0.001  0.0051 -0.4152  0.4424
 9647SOL    HW130391   6.746   3.662   0.064 -1.2663 -0.8566  0.9662
 9647SOL    HW230392   6.746   3.804   0.009  1.6350 -1.1710 -0.0357
 9648SOL     OW30393   3.546   6.017   0.771  0.0430  0.0228  0.3070
 9648SOL    HW130394   3.626   6.068   0.783 -0.5583  1.1784 -0.3834
 9648SOL    HW230395   3.487   6.077   0.724 -0.8093 -1.2000 -0.2185
 9649SOL     OW30396   1.037   3.934   3.952  0.4528 -0.0788 -0.2971
 9649SOL    HW130397   1.004   3.942   3.863 -0.3311  1.8253  0.0997
 9649SOL    HW230398   1.112   3.994   3.956 -0.3025  0.8548  0.6247
 9650SOL     OW30399   4.558   3.787   3.402  0.2212 -0.3870  0.3502
 9650SOL    HW130400   4.612   3.745   3.335 -0.9826  0.6302 -1.3169
 9650SOL    HW230401   4.622   3.823   3.464  1.4775  0.1775 -1.1951
 9651SOL     OW30402   2.750   1.879   3.421  0.2251  1.0567  0.2407
 9651SOL    HW130403   2.827   1.926   3.453  0.8294  0.9655 -1.0273
 9651SOL    HW230404   2.684   1.947   3.406  0.7606  1.3987 -0.6294
 9652SOL     OW30405   3.869   1.241   5.373 -0.0333  0.2905 -0.1731
 9652SOL    HW130406   3.849   1.151   5.400  0.0689  0.7718  1.6375
 9652SOL    HW230407   3.901   1.232   5.284 -1.8020 -1.2572 -0.7328
 9653SOL     OW30408   1.630   0.733   4.158 -0.0370 -0.0841 -0.2637
 9653SOL    HW130409   1.691   0.806   4.152  0.4220 -0.3959  0.4061
 9653SOL    HW230410   1.597   0.721   4.069  0.6522  0.2833 -0.5751
 9654SOL     OW30411   1.922   4.737   7.035 -0.0898  0.7912  0.0112
 9654SOL    HW130412   1.836   4.760   6.999 -0.4043  0.7196  0.6953
 9654SOL    HW230413   1.958   4.820   7.066 -0.8557  0.5299  1.6965
 9655SOL     OW30414   0.227   0.122   1.518 -0.8132  0.6863  0.0929
 9655SOL    HW130415   0.228   0.170   1.435 -0.9327 -2.1488 -1.7186
 9655SOL    HW230416   0.319   0.115   1.543 -0.7480  1.2978  0.0239
 9656SOL     OW30417   5.094   5.627   5.497  0.4021  0.1406 -0.1834
 9656SOL    HW130418   5.108   5.708   5.447  0.6610 -0.5353 -1.2367
 9656SOL    HW230419   5.037   5.574   5.441  2.4949 -1.5742 -0.8862
 9657SOL     OW30420   2.200   6.380   2.868  0.1082  0.2702 -0.3306
 9657SOL    HW130421   2.174   6.373   2.959  0.2560  0.0254 -0.3086
 9657SOL    HW230422   2.197   6.291   2.834 -0.4366  0.4149 -0.7013
 9658SOL     OW30423   1.426   5.186   6.310  0.9274  0.3335  0.1474
 9658SOL    HW130424   1.390   5.273   6.293  2.9484  1.2459  0.2355
 9658SOL    HW230425   1.485   5.169   6.237  1.1714 -0.5992  0.5411
 9659SOL     OW30426   0.478   1.153   0.986  0.6513  0.4362  0.3735
 9659SOL    HW130427   0.418   1.098   0.935 -0.1299  0.1023  1.6177
 9659SOL    HW230428   0.425   1.229   1.011  0.5820 -0.0714  1.8616
 9660SOL     OW30429   3.409   2.134   0.554 -0.2007  0.0860 -1.2323
 9660SOL    HW130430   3.474   2.078   0.510  1.8369  0.9261  0.5463
 9660SOL    HW230431   3.394   2.206   0.493  1.9163  0.7800 -1.0257
 9661SOL     OW30432   4.718   6.481   5.400  0.1929  0.1975  0.5065
 9661SOL    HW130433   4.663   6.430   5.340  2.2136  0.0917 -1.3716
 9661SOL    HW230434   4.703   6.441   5.486 -1.5785 -0.7024 -0.1726
 9662SOL     OW30435   5.714   5.913   0.564  0.1864 -0.1192 -0.6636
 9662SOL    HW130436   5.789   5.969   0.583  0.2280 -0.6974  1.0798
 9662SOL    HW230437   5.749   5.824   0.566 -0.6385 -0.4579  1.0425
 9663SOL     OW30438   1.980   4.303   3.993  0.2980 -0.4050 -0.0353
 9663SOL    HW130439   1.947   4.374   3.938  0.4572  1.3532  2.0303
 9663SOL    HW230440   1.910   4.238   3.991 -0.7799  0.7122 -0.3342
 9664SOL     OW30441   5.107   3.494   4.154  0.5407  0.0599  0.3477
 9664SOL    HW130442   5.039   3.562   4.148 -0.0617 -0.4759  0.9045
 9664SOL    HW230443   5.095   3.456   4.241  0.8176 -0.8097  0.0182
 9665SOL     OW30444   2.408   7.039   6.035 -0.3897 -0.3127 -0.0152
 9665SOL    HW130445   2.318   7.008   6.044  0.3953 -2.3089  2.0221
 9665SOL    HW230446   2.431   7.020   5.944 -2.4611  1.7438 -1.0731
 9666SOL     OW30447   1.671   0.687   2.508  0.2264  0.6430 -0.0954
 9666SOL    HW130448   1.613   0.611   2.520 -0.1301  0.8822 -0.2912
 9666SOL    HW230449   1.758   0.654   2.532  0.2176 -0.0680 -0.9803
 9667SOL     OW30450   6.010   6.878   2.106  0.2533 -0.1148  0.1276
 9667SOL    HW130451   5.941   6.883   2.173 -0.3460  0.9106 -0.5293
 9667SOL    HW230452   6.024   6.785   2.093 -2.0213 -0.4054 -0.6940
 9668SOL     OW30453   0.929   5.346   2.852 -0.5337  0.3151  0.2858
 9668SOL    HW130454   0.870   5.390   2.791 -2.8621 -0.8909  1.5199
 9668SOL    HW230455   0.998   5.410   2.869 -2.0429  2.2512 -0.4238
 9669SOL     OW30456   4.597   0.059   4.984  0.2563  0.6873  0.3460
 9669SOL    HW130457   4.578  -0.003   4.914  2.5133  0.9240 -0.5482
 9669SOL    HW230458   4.570   0.144   4.949  0.3874  0.6619  0.1808
 9670SOL     OW30459   4.585   6.114   4.486  0.2381 -0.6104 -0.2658
 9670SOL    HW130460   4.532   6.041   4.516 -0.3972  0.0062  0.1435
 9670SOL    HW230461   4.525   6.170   4.437  0.0154  1.0283  1.7268
 9671SOL     OW30462   4.811   0.747   0.083  0.0410 -0.2397  0.5245
 9671SOL    HW130463   4.880   0.704   0.133  1.9788  1.6386 -0.3635
 9671SOL    HW230464   4.797   0.692   0.007  1.8124  0.1819 -0.1402
 9672SOL     OW30465   2.596   0.567   0.936 -0.0953 -0.1376  0.0506
 9672SOL    HW130466   2.627   0.557   0.846 -0.5062  1.5567 -0.3187
 9672SOL    HW230467   2.501   0.552   0.930 -0.2780  0.9590 -0.0065
 9673SOL     OW30468   6.374   6.538   0.086 -0.1884 -0.2545 -0.1232
 9673SOL    HW130469   6.444   6.600   0.067 -0.5145  0.4452  0.8459
 9673SOL    HW230470   6.415   6.452   0.078  0.6474  0.1353 -0.1016
 9674SOL     OW30471   3.203   3.450   3.450 -0.0829 -0.0397  0.4459
 9674SOL    HW130472   3.126   3.497   3.482  0.6367  1.0938  0.5805
 9674SOL    HW230473   3.195   3.363   3.488 -2.2889 -0.6034 -1.0874
 9675SOL     OW30474   2.123   6.450   2.451  0.0737  0.1048 -0.3814
 9675SOL    HW130475   2.197   6.505   2.476  0.7698  0.6128 -3.2103
 9675SOL    HW230476   2.116   6.460   2.356 -0.8481 -3.3820 -0.8233
 9676SOL     OW30477   2.449   1.782   4.056  0.5756  0.1138 -0.7531
 9676SOL    HW130478   2.366   1.750   4.021  0.8952 -1.4078 -0.1827
 9676SOL    HW230479   2.447   1.877   4.040 -1.4837  0.1953 -0.2712
 9677SOL     OW30480   3.933   0.800   1.201  0.1643 -0.1784  0.3146
 9677SOL    HW130481   3.853   0.752   1.183  1.7790 -1.9793 -3.0391
 9677SOL    HW230482   3.930   0.876   1.143  0.5541  0.1965  0.7662
 9678SOL     OW30483   1.571   1.664   0.717 -0.1328 -0.1366  0.0953
 9678SOL    HW130484   1.497   1.603   0.718 -1.4412  1.3219 -1.2980
 9678SOL    HW230485   1.539   1.739   0.668  1.4636  1.6517  1.6429
 9679SOL     OW30486   3.740   4.858   3.397  0.3157  0.1729 -0.0094
 9679SOL    HW130487   3.715   4.813   3.317 -0.5935  0.1053  0.3018
 9679SOL    HW230488   3.721   4.950   3.380 -1.7766 -0.0671  0.8053
 9680SOL     OW30489   0.838   3.883   0.582 -0.0809  0.2756  0.1263
 9680SOL    HW130490   0.744   3.869   0.580 -0.0437  0.0662 -0.7376
 9680SOL    HW230491   0.869   3.852   0.496  0.7734  0.3121  0.4066
 9681SOL     OW30492   1.903   2.634   6.458  0.3088  0.0180  0.0239
 9681SOL    HW130493   1.842   2.670   6.393  1.4705 -1.3009 -1.9123
 9681SOL    HW230494   1.887   2.540   6.457  0.5893 -0.0656  1.4392
 9682SOL     OW30495   6.546   0.697   0.548 -0.7717  0.0258  0.4560
 9682SOL    HW130496   6.566   0.728   0.636 -2.0236 -1.5389  1.3443
 9682SOL    HW230497   6.451   0.706   0.540 -0.9486 -1.7283  0.0777
 9683SOL     OW30498   0.834   5.741   3.560  0.4054  0.0955  0.0140
 9683SOL    HW130499   0.831   5.791   3.642 -3.3719  2.3517 -1.2375
 9683SOL    HW230500   0.844   5.808   3.492  0.3315 -1.4149 -1.5585
 9684SOL     OW30501   2.382   2.236   2.004  0.5064 -0.1037 -0.3053
 9684SOL    HW130502   2.357   2.190   2.084  4.2324 -1.2231  0.3613
 9684SOL    HW230503   2.443   2.304   2.034  1.2564  0.0557 -2.1248
 9685SOL     OW30504   4.156   1.483   6.469 -0.1868 -0.3082  0.5466
 9685SOL    HW130505   4.093   1.544   6.507 -1.0312 -1.0874  0.4406
 9685SOL    HW230506   4.213   1.457   6.541  0.1041  0.5098  0.6138
 9686SOL     OW30507   3.327   2.164   5.933  0.6562 -0.0900 -0.2592
 9686SOL    HW130508   3.294   2.092   5.880  1.4293 -0.7867  0.1884
 9686SOL    HW230509   3.311   2.242   5.880  0.6935 -0.6893 -1.1681
 9687SOL     OW30510   3.202   6.495   5.749  0.2959 -0.9619  0.4791
 9687SOL    HW130511   3.129   6.507   5.810 -0.2590 -0.1073 -0.3171
 9687SOL    HW230512   3.279   6.485   5.804 -0.2325 -0.4634  1.3245
 9688SOL     OW30513   4.317   1.663   6.153 -0.1047  0.3955 -0.4772
 9688SOL    HW130514   4.272   1.583   6.127  0.2362  0.5067 -1.4189
 9688SOL    HW230515   4.381   1.635   6.218 -0.8254  0.0908  0.1198
 9689SOL     OW30516   5.970   3.574   0.022 -0.1139  0.0724  0.3682
 9689SOL    HW130517   5.979   3.520   0.101  0.9554 -1.6807 -0.8924
 9689SOL    HW230518   5.901   3.637   0.044 -0.2236 -0.7183  2.4967
 9690SOL     OW30519   3.509   4.994   5.982 -0.2004 -0.1286  0.1760
 9690SOL    HW130520   3.490   4.928   5.916 -3.2978  0.4321  0.3487
 9690SOL    HW230521   3.542   5.069   5.932  3.2826 -1.6266 -0.0208
 9691SOL     OW30522   3.536   5.221   3.855  0.3628  0.4330  0.1147
 9691SOL    HW130523   3.575   5.179   3.932  0.3717 -2.5447 -1.3501
 9691SOL    HW230524   3.442   5.208   3.866  0.1254  2.4082  0.8339
 9692SOL     OW30525   1.895   0.544   2.606  0.0359 -0.3174 -0.0169
 9692SOL    HW130526   1.822   0.532   2.666  1.4608 -0.6731  1.6995
 9692SOL    HW230527   1.944   0.463   2.610  1.8170  0.7408  0.6888
 9693SOL     OW30528   6.083   2.719   3.840  0.1671 -0.1089  0.1781
 9693SOL    HW130529   6.122   2.661   3.906 -0.5719 -0.5253  0.2593
 9693SOL    HW230530   6.008   2.758   3.884  1.6204  2.2775  0.7020
 9694SOL     OW30531   6.781   6.169   1.995 -0.0003  0.8041  0.3493
 9694SOL    HW130532   6.835   6.134   2.065 -0.7860 -1.4113 -0.0829
 9694SOL    HW230533   6.823   6.138   1.915 -1.3471 -0.1781 -0.0124
 9695SOL     OW30534   0.672   1.479   0.911 -0.5132 -0.2646  0.2255
 9695SOL    HW130535   0.577   1.465   0.909 -0.4514 -0.8315  0.9167
 9695SOL    HW230536   0.683   1.559   0.962 -0.6378  0.1358 -0.3514
 9696SOL     OW30537   1.771   5.002   3.966 -0.5382  0.1112 -0.5697
 9696SOL    HW130538   1.817   4.940   4.023 -1.3901 -0.0445 -0.0401
 9696SOL    HW230539   1.731   5.064   4.026  0.6792  1.4755 -1.1078
 9697SOL     OW30540   4.801   4.103   3.010 -0.0650  0.4096  0.5119
 9697SOL    HW130541   4.868   4.037   3.027  0.0659  0.6533  0.9456
 9697SOL    HW230542   4.726   4.075   3.063  0.1213  0.8142  0.9953
 9698SOL     OW30543   1.862   1.200   0.223 -0.6235  0.3487 -0.5929
 9698SOL    HW130544   1.856   1.202   0.319 -2.2502  0.0459 -0.6564
 9698SOL    HW230545   1.842   1.110   0.200 -1.0391  0.6074 -1.2602
 9699SOL     OW30546   5.625   6.990   3.430 -0.7351 -0.7711  0.3191
 9699SOL    HW130547   5.682   6.961   3.359  0.0824  1.8959 -0.2105
 9699SOL    HW230548   5.548   7.025   3.386 -0.5956  0.1219  0.7624
 9700SOL     OW30549   1.656   3.278   5.395 -0.1523  0.1851 -0.0156
 9700SOL    HW130550   1.583   3.291   5.456 -0.9060  0.8050 -0.9998
 9700SOL    HW230551   1.725   3.336   5.427 -0.4941  0.4098  0.3224
 9701SOL     OW30552   3.602   5.307   6.935  0.5438 -0.3750 -0.1626
 9701SOL    HW130553   3.607   5.345   6.848  0.5732 -0.1416 -0.0587
 9701SOL    HW230554   3.510   5.282   6.945  0.5185 -0.3035 -0.2203
 9702SOL     OW30555   6.928   6.766   6.986 -0.3783 -0.2950  0.1940
 9702SOL    HW130556   6.978   6.847   6.999 -2.9202  1.1276  2.1685
 9702SOL    HW230557   6.977   6.699   7.033 -0.5349  1.1916  2.6458
 9703SOL     OW30558   4.712   2.387   0.931 -0.2335 -0.1621 -0.5591
 9703SOL    HW130559   4.744   2.477   0.941 -1.3244  0.1005  0.9212
 9703SOL    HW230560   4.703   2.375   0.836 -0.7207  1.5326 -0.7566
 9704SOL     OW30561   4.440   6.106   4.996 -0.2713  0.3241 -0.1318
 9704SOL    HW130562   4.375   6.112   5.066 -2.0120 -0.1798 -1.6456
 9704SOL    HW230563   4.423   6.022   4.954  0.4913  0.7743 -1.3959
 9705SOL     OW30564   6.507   1.606   2.825  0.1790  0.1562  0.1230
 9705SOL    HW130565   6.576   1.549   2.790  1.4633  1.7893 -0.1455
 9705SOL    HW230566   6.459   1.636   2.748  0.8892  1.1125  0.0313
 9706SOL     OW30567   2.411   0.287   4.611  0.7307  0.3118 -0.0548
 9706SOL    HW130568   2.449   0.371   4.586  0.6448  0.3611 -0.0196
 9706SOL    HW230569   2.367   0.304   4.694  1.2994  0.0685  0.2981
 9707SOL     OW30570   6.537   2.193   0.955 -0.0147 -0.1376  0.0075
 9707SOL    HW130571   6.631   2.196   0.973  0.1576 -0.2566 -0.8514
 9707SOL    HW230572   6.501   2.142   1.028  0.2776  1.6664  1.4988
 9708SOL     OW30573   3.080   1.489   6.482  0.9059  0.3921 -0.2391
 9708SOL    HW130574   3.013   1.471   6.548  0.8319 -1.0402 -0.6762
 9708SOL    HW230575   3.139   1.551   6.524 -0.0627  0.8006  0.5588
 9709SOL     OW30576   4.661   2.070   0.625 -0.7995 -0.2817  0.0528
 9709SOL    HW130577   4.754   2.050   0.616 -0.7347 -0.2079  0.5297
 9709SOL    HW230578   4.633   2.098   0.538 -0.5374 -0.9698 -0.2588
 9710SOL     OW30579   2.817   6.678   3.508 -0.6392 -0.3293  0.3858
 9710SOL    HW130580   2.730   6.665   3.470 -0.7967  0.5413  0.4283
 9710SOL    HW230581   2.799   6.714   3.595 -0.2451 -0.7879  0.6611
 9711SOL     OW30582   0.829   5.239   3.777 -0.1054  0.2482  0.2609
 9711SOL    HW130583   0.794   5.284   3.854 -1.3851  0.1403 -0.2373
 9711SOL    HW230584   0.782   5.156   3.774 -1.5132  1.0441 -1.7069
 9712SOL     OW30585   5.141   0.127   0.514 -0.3040  0.0507 -0.1649
 9712SOL    HW130586   5.141   0.132   0.610  1.8736  0.6587 -0.1369
 9712SOL    HW230587   5.167   0.037   0.495  1.0354  0.4046 -0.1235
 9713SOL     OW30588   4.667   4.563   2.837 -0.1228  0.2874 -0.1929
 9713SOL    HW130589   4.647   4.555   2.744  1.4466  1.8129 -0.7194
 9713SOL    HW230590   4.699   4.476   2.862  1.7972  0.4651 -1.7507
 9714SOL     OW30591   6.854   6.485   1.192  0.0313 -0.5641 -0.2874
 9714SOL    HW130592   6.903   6.425   1.248  0.2337  0.6011  0.8387
 9714SOL    HW230593   6.821   6.552   1.252  0.2461  0.7257 -1.5581
 9715SOL     OW30594   5.455   2.077   6.777  0.1190  0.1572 -0.3612
 9715SOL    HW130595   5.476   2.137   6.706 -0.3615 -0.7064 -1.2719
 9715SOL    HW230596   5.465   1.990   6.738 -3.4564 -0.3713 -0.4465
 9716SOL     OW30597   6.230   1.167   3.379  0.4924 -0.2635  0.0554
 9716SOL    HW130598   6.308   1.149   3.432  1.0539  1.1559 -0.2350
 9716SOL    HW230599   6.261   1.224   3.309 -0.8099  0.3318 -0.0696
 9717SOL     OW30600   6.546   7.081   5.086  0.4847  0.1146 -0.0728
 9717SOL    HW130601   6.607   7.023   5.131  2.4016  0.4368 -2.0712
 9717SOL    HW230602   6.474   7.024   5.060 -0.2509 -0.2498  2.4679
 9718SOL     OW30603   1.390   0.188   0.006 -0.3322 -0.3054  0.1216
 9718SOL    HW130604   1.296   0.169   0.007 -0.1191 -1.4229  0.3561
 9718SOL    HW230605   1.430   0.108  -0.027  0.5401  0.1892 -0.0435
 9719SOL     OW30606   5.623   2.512   0.699 -0.3717 -0.5080  0.2189
 9719SOL    HW130607   5.714   2.492   0.724  0.3639 -0.4351 -2.0792
 9719SOL    HW230608   5.588   2.428   0.670 -0.7309 -0.3673  0.2506
 9720SOL     OW30609   6.025   4.724   6.901  0.0981 -0.2194  0.2226
 9720SOL    HW130610   6.008   4.802   6.848  0.0724 -0.2301  0.2146
 9720SOL    HW230611   6.067   4.758   6.980  0.7470 -0.2659 -0.0977
 9721SOL     OW30612   0.256   5.348   3.178 -0.0559 -0.0031  0.2230
 9721SOL    HW130613   0.259   5.318   3.269  0.1926  0.5958  0.4242
 9721SOL    HW230614   0.265   5.269   3.126  0.9047 -0.2529  0.7344
 9722SOL     OW30615   1.691   1.144   4.416 -0.1310  0.1769 -0.0268
 9722SOL    HW130616   1.712   1.086   4.489 -0.1176 -0.9405 -0.8827
 9722SOL    HW230617   1.629   1.207   4.452 -0.5563 -0.6953  0.8046
 9723SOL     OW30618   2.518   1.835   0.779 -0.3781 -0.0987  0.5592
 9723SOL    HW130619   2.533   1.749   0.818 -1.5368 -0.1790  0.8441
 9723SOL    HW230620   2.446   1.872   0.829 -1.3122  0.1686 -0.9108
 9724SOL     OW30621   2.735   5.455   3.348 -0.5083  0.3215  0.4288
 9724SOL    HW130622   2.750   5.469   3.254  2.0885 -2.2335  0.3182
 9724SOL    HW230623   2.688   5.372   3.353 -2.2083  1.2953  1.4102
 9725SOL     OW30624   1.019   4.167   2.811 -0.8646  0.7033 -0.4753
 9725SOL    HW130625   1.031   4.167   2.716 -1.4739 -1.6057 -0.6099
 9725SOL    HW230626   0.925   4.156   2.823 -1.0098  2.5715  0.4481
 9726SOL     OW30627   3.752   5.471   2.739 -0.1406  0.1517  0.1158
 9726SOL    HW130628   3.801   5.393   2.764 -0.1274  0.4436  1.0388
 9726SOL    HW230629   3.767   5.480   2.645 -1.4744 -1.8916 -0.3549
 9727SOL     OW30630   2.733   6.121   6.251  0.1131  0.5326  0.3721
 9727SOL    HW130631   2.653   6.120   6.303 -0.2761 -1.9356 -0.1386
 9727SOL    HW230632   2.732   6.038   6.203  2.2715  1.0693 -0.7638
 9728SOL     OW30633   1.922   1.195   4.100  0.2464 -0.2150  0.2660
 9728SOL    HW130634   1.864   1.240   4.162  0.1709  0.7653 -0.4955
 9728SOL    HW230635   1.912   1.243   4.018  2.5303  0.3240  0.2242
 9729SOL     OW30636   3.372   5.475   0.027 -0.8332  0.4479  0.0050
 9729SOL    HW130637   3.378   5.383   0.052 -1.9945 -0.0296 -1.3071
 9729SOL    HW230638   3.463   5.505   0.025 -0.3394 -0.9696 -0.5356
 9730SOL     OW30639   3.997   5.398   1.645 -0.4189 -0.2067 -0.4280
 9730SOL    HW130640   3.988   5.459   1.571 -0.8198  1.2535  0.7621
 9730SOL    HW230641   4.056   5.330   1.613 -1.1191  0.0078 -2.3126
 9731SOL     OW30642   0.528   1.528   5.971  0.2063  0.1385  0.3479
 9731SOL    HW130643   0.471   1.451   5.965 -1.2264  1.1604  0.2862
 9731SOL    HW230644   0.504   1.569   6.054  1.3731  0.2109  0.6596
 9732SOL     OW30645   7.049   4.491   2.076  0.2033 -0.0220  0.5637
 9732SOL    HW130646   6.979   4.555   2.067  0.6023  0.4767  0.9886
 9732SOL    HW230647   7.058   4.453   1.988 -0.7734 -0.2875  0.5664
 9733SOL     OW30648   4.590   6.480   3.223  0.0408 -0.1681 -0.2769
 9733SOL    HW130649   4.506   6.463   3.266  0.3276 -0.9476 -0.0147
 9733SOL    HW230650   4.644   6.404   3.245  1.3816  1.0766  0.9337
 9734SOL     OW30651   5.453   6.165   4.269  0.1513  0.2370 -0.2580
 9734SOL    HW130652   5.412   6.178   4.183  0.9176 -1.6692 -0.9684
 9734SOL    HW230653   5.471   6.071   4.273  1.7085  0.5519  1.2800
 9735SOL     OW30654   2.818   1.212   3.755  0.3410  0.1090 -0.7825
 9735SOL    HW130655   2.891   1.151   3.744  0.1160 -0.1560 -0.8362
 9735SOL    HW230656   2.752   1.181   3.693 -0.8136 -1.1868  1.0119
 9736SOL     OW30657   0.967   0.616   1.028 -0.1946  0.1550  0.4927
 9736SOL    HW130658   0.994   0.525   1.042 -0.3797  0.1683  0.9464
 9736SOL    HW230659   0.876   0.610   1.001  0.7611 -0.0590 -3.2917
 9737SOL     OW30660   6.137   5.152   3.093 -0.1601 -0.0610  0.0269
 9737SOL    HW130661   6.227   5.119   3.091 -0.7490 -1.7354 -0.1694
 9737SOL    HW230662   6.107   5.135   3.182  0.4553  2.7485  0.8886
 9738SOL     OW30663   0.442   1.879   4.756  0.2540 -0.3532  0.2862
 9738SOL    HW130664   0.355   1.867   4.795 -1.1021  0.6435 -2.1828
 9738SOL    HW230665   0.481   1.951   4.806 -1.2378  0.6082  0.1333
 9739SOL     OW30666   3.103   6.022   7.085 -0.2678  0.6305  0.0062
 9739SOL    HW130667   3.055   5.939   7.077 -1.3538  0.8304  3.2092
 9739SOL    HW230668   3.158   6.025   7.006 -1.1621 -2.4596 -0.8886
 9740SOL     OW30669   5.159   0.618   7.077 -0.8111 -0.2147  0.4542
 9740SOL    HW130670   5.224   0.609   7.147 -0.1725 -1.3284 -0.2646
 9740SOL    HW230671   5.205   0.665   7.007 -1.2011  0.1746  0.4522
 9741SOL     OW30672   2.626   3.640   0.228 -0.0129 -0.2379  0.7182
 9741SOL    HW130673   2.531   3.624   0.233  0.1575 -1.8050 -0.1618
 9741SOL    HW230674   2.633   3.733   0.208 -1.3628 -0.0491  0.9714
 9742SOL     OW30675   5.502   4.500   4.245  0.2276  0.9151  0.2653
 9742SOL    HW130676   5.453   4.467   4.170  0.3988 -0.6844  0.8062
 9742SOL    HW230677   5.588   4.459   4.237  0.4387  1.2084  0.9965
 9743SOL     OW30678   2.299   0.134   1.872  0.2906  0.3904  0.0198
 9743SOL    HW130679   2.257   0.162   1.791  1.8386  0.3504 -0.8222
 9743SOL    HW230680   2.233   0.151   1.940 -1.5273 -0.7205 -1.3539
 9744SOL     OW30681   6.558   4.586   1.045  0.2983  0.1625 -0.0102
 9744SOL    HW130682   6.511   4.541   0.975  1.4894  1.5593 -1.7884
 9744SOL    HW230683   6.490   4.635   1.091 -0.5115 -0.7924 -0.1410
 9745SOL     OW30684   4.833   1.669   1.596  0.3670 -0.3694 -0.1135
 9745SOL    HW130685   4.917   1.636   1.565  0.2829 -0.3526 -0.3629
 9745SOL    HW230686   4.790   1.703   1.518  0.7528  1.0161  0.2372
 9746SOL     OW30687   0.850   2.372   4.803 -0.5730  0.1155 -0.0146
 9746SOL    HW130688   0.833   2.410   4.890  0.9351 -0.4340  0.5605
 9746SOL    HW230689   0.943   2.348   4.806 -0.0654  1.5536 -2.3731
 9747SOL     OW30690   6.249   1.887   4.422 -0.2201 -0.2843  0.0602
 9747SOL    HW130691   6.328   1.833   4.425 -0.5767 -0.8190 -0.1655
 9747SOL    HW230692   6.272   1.959   4.364  0.2545 -0.1866  0.3557
 9748SOL     OW30693   0.251   2.388   0.649  0.0588 -0.0555 -0.0848
 9748SOL    HW130694   0.314   2.443   0.695  0.3312  1.0756 -1.7299
 9748SOL    HW230695   0.251   2.306   0.698  0.9572  0.7804  1.3942
 9749SOL     OW30696   5.258   3.734   1.239  0.2978 -0.5903  0.4031
 9749SOL    HW130697   5.210   3.720   1.157 -0.2303  0.2071  0.5574
 9749SOL    HW230698   5.245   3.654   1.288 -2.3880  0.2000  1.1585
 9750SOL     OW30699   3.561   6.610   0.261  0.3422  0.1674 -0.3805
 9750SOL    HW130700   3.634   6.672   0.255 -0.2435  0.9741  0.4721
 9750SOL    HW230701   3.488   6.662   0.296 -0.6556 -0.6153 -1.2406
 9751SOL     OW30702   1.128   0.386   0.386 -0.5093  0.3150  0.6965
 9751SOL    HW130703   1.133   0.430   0.471  0.3526  1.0658  0.2686
 9751SOL    HW230704   1.218   0.364   0.364 -0.6330  0.8021 -0.3659
 9752SOL     OW30705   6.079   6.195   4.848  0.0394  0.5195 -0.3177
 9752SOL    HW130706   6.039   6.119   4.889  0.8748  0.1410 -0.1882
 9752SOL    HW230707   6.013   6.226   4.785 -0.9821  0.7084  0.8149
 9753SOL     OW30708   3.856   6.186   6.818  0.1078 -0.5793  0.7147
 9753SOL    HW130709   3.851   6.200   6.913 -0.7653 -0.7337  0.7031
 9753SOL    HW230710   3.849   6.274   6.781 -2.0399 -0.6960  0.7392
 9754SOL     OW30711   6.119   4.790   3.521  0.0506  0.3874  0.6718
 9754SOL    HW130712   6.133   4.701   3.554 -0.6516 -1.4226 -3.3909
 9754SOL    HW230713   6.025   4.806   3.533 -0.2943 -0.4555 -0.8065
 9755SOL     OW30714   2.808   0.675   0.542 -0.2142  0.3472 -0.0800
 9755SOL    HW130715   2.824   0.659   0.449 -0.5455  1.1927 -0.2969
 9755SOL    HW230716   2.847   0.761   0.557  1.3530 -0.5012  0.9753
 9756SOL     OW30717   1.320   0.162   2.726 -0.4163  0.2946 -0.3385
 9756SOL    HW130718   1.312   0.257   2.717  0.2968  0.2666 -1.6049
 9756SOL    HW230719   1.242   0.135   2.775 -0.1529  1.6279  0.8768
 9757SOL     OW30720   6.692   1.204   5.146 -0.4477 -0.2246  0.0647
 9757SOL    HW130721   6.787   1.197   5.151 -0.4362  0.2756  0.6220
 9757SOL    HW230722   6.663   1.115   5.123  0.1848 -0.2218 -0.7942
 9758SOL     OW30723   4.982   5.918   1.732  0.1475 -0.1445  0.1761
 9758SOL    HW130724   4.947   5.946   1.816  0.3656  0.3011  0.1223
 9758SOL    HW230725   4.915   5.943   1.668  0.9443  1.6260 -0.0504
 9759SOL     OW30726   6.828   6.177   4.263 -0.2358  0.2551  0.0886
 9759SOL    HW130727   6.835   6.226   4.345 -1.3638  1.0030 -0.2323
 9759SOL    HW230728   6.779   6.099   4.286 -0.8902  0.6506  0.0697
 9760SOL     OW30729   4.945   4.572   3.148 -0.7055 -0.4848 -0.4003
 9760SOL    HW130730   4.865   4.619   3.169 -1.3788 -1.8241  0.1129
 9760SOL    HW230731   4.916   4.496   3.098 -0.0759 -2.3590  1.9171
 9761SOL     OW30732   6.332   4.323   4.892  0.2821 -0.1124  0.5168
 9761SOL    HW130733   6.294   4.336   4.805  0.9721 -1.1617  0.0473
 9761SOL    HW230734   6.303   4.236   4.919  0.0568  0.2129  1.3562
 9762SOL     OW30735   0.915   3.060   2.637  0.2695 -0.2240  0.2364
 9762SOL    HW130736   0.831   3.096   2.609  1.0160  0.1531 -1.6838
 9762SOL    HW230737   0.956   3.132   2.687  1.5357  1.6374 -3.1484
 9763SOL     OW30738   0.795   6.187   3.959  0.6010  0.1041  0.8618
 9763SOL    HW130739   0.726   6.152   3.903 -0.1683  0.2583  1.6931
 9763SOL    HW230740   0.749   6.222   4.035  1.3499  2.4545  0.3319
 9764SOL     OW30741   6.282   5.788   3.573  0.3792  0.2223 -0.1738
 9764SOL    HW130742   6.267   5.694   3.579 -1.6406  0.3861 -1.7881
 9764SOL    HW230743   6.319   5.812   3.658 -2.1235 -1.5014  1.5150
 9765SOL     OW30744   4.076   6.476   6.306  0.1892  0.4398  0.4973
 9765SOL    HW130745   4.036   6.392   6.329 -0.5186  0.6658  0.1163
 9765SOL    HW230746   4.159   6.452   6.265  0.3777 -0.0397  1.1461
 9766SOL     OW30747   6.904   3.468   1.022 -0.2450  0.3634  0.0979
 9766SOL    HW130748   6.884   3.460   0.929 -1.4708  0.1235  0.3748
 9766SOL    HW230749   6.870   3.387   1.061  1.4561 -0.1722  0.5768
 9767SOL     OW30750   6.186   5.551   5.282  0.2870 -0.0143 -0.2160
 9767SOL    HW130751   6.219   5.606   5.210  0.0428 -0.4853 -0.6932
 9767SOL    HW230752   6.255   5.556   5.348 -0.0059  1.3643  0.0116
 9768SOL     OW30753   3.792   0.878   3.959 -0.3653 -0.3870 -0.5635
 9768SOL    HW130754   3.713   0.834   3.926  1.0872 -2.3438 -1.6568
 9768SOL    HW230755   3.863   0.819   3.934  1.2145 -0.1238  2.8669
 9769SOL     OW30756   3.857   5.528   1.420  0.2221 -0.7670  0.1124
 9769SOL    HW130757   3.825   5.493   1.337 -1.7242 -1.4108  1.0794
 9769SOL    HW230758   3.788   5.508   1.483  1.2445  0.4983  1.7198
 9770SOL     OW30759   6.079   5.963   1.262 -0.1647 -0.1897 -0.5419
 9770SOL    HW130760   5.995   5.973   1.218 -0.4001  0.1383 -0.0268
 9770SOL    HW230761   6.058   5.925   1.347  0.3529 -1.4565 -0.9508
 9771SOL     OW30762   3.229   4.175   1.666  0.0685 -0.0123  0.5824
 9771SOL    HW130763   3.226   4.157   1.760  0.6438  0.2049  0.6487
 9771SOL    HW230764   3.145   4.144   1.633  0.1821 -0.8268  1.0358
 9772SOL     OW30765   4.463   2.087   5.125  0.2745  0.2377  0.7964
 9772SOL    HW130766   4.510   2.019   5.173  0.9441 -0.2683 -0.5270
 9772SOL    HW230767   4.532   2.146   5.093  0.0553 -0.3982 -0.9896
 9773SOL     OW30768   2.275   2.475   4.420  0.1967  0.0532  0.0067
 9773SOL    HW130769   2.367   2.465   4.443  0.0389  0.4772  0.8574
 9773SOL    HW230770   2.237   2.388   4.433  0.2800  0.1011  0.5941
 9774SOL     OW30771   6.205   6.229   3.924  0.6564  0.4052 -0.1513
 9774SOL    HW130772   6.209   6.170   3.848  1.4653 -0.8851  0.8509
 9774SOL    HW230773   6.283   6.284   3.916  0.7950  0.2021 -0.2208
 9775SOL     OW30774   0.064   5.519   2.381  0.3036 -0.2341  0.0826
 9775SOL    HW130775   0.139   5.466   2.354 -0.3338 -0.1308 -2.0797
 9775SOL    HW230776   0.072   5.600   2.330 -0.3607  0.5134  1.1101
 9776SOL     OW30777   0.616   2.357   0.766 -0.0758 -0.0853  0.0667
 9776SOL    HW130778   0.617   2.338   0.860  0.4552 -0.1908  0.0389
 9776SOL    HW230779   0.669   2.288   0.727 -0.9547 -0.5085 -0.4059
 9777SOL     OW30780   1.044   3.822   1.491 -0.1433 -0.2710 -0.0405
 9777SOL    HW130781   1.023   3.759   1.559 -0.9542 -1.3281 -1.2448
 9777SOL    HW230782   1.000   3.903   1.518  2.0548  0.3051  2.2482
 9778SOL     OW30783   2.029   1.011   2.081  0.6877  0.6866  0.5475
 9778SOL    HW130784   2.039   0.996   2.175 -0.3143  3.0201  1.1114
 9778SOL    HW230785   1.945   0.972   2.059 -0.0095  1.8126  1.1003
 9779SOL     OW30786   0.595   6.435   1.328 -0.4517 -0.1850 -0.2380
 9779SOL    HW130787   0.611   6.454   1.236 -0.4714  1.1580  0.0211
 9779SOL    HW230788   0.580   6.520   1.368 -1.3286 -0.8249  0.8465
 9780SOL     OW30789   3.680   4.671   3.059  0.2657 -0.1469 -0.7430
 9780SOL    HW130790   3.717   4.723   2.987  0.3324  0.2894 -0.3995
 9780SOL    HW230791   3.752   4.615   3.088  0.1909 -0.4438 -1.1216
 9781SOL     OW30792   1.886   6.776   1.997  0.5717 -0.6444 -0.3572
 9781SOL    HW130793   1.943   6.699   1.997  0.2449 -0.8962 -1.0052
 9781SOL    HW230794   1.821   6.758   2.065  0.7316 -0.7602 -0.2346
 9782SOL     OW30795   1.913   2.893   0.467 -0.2504 -0.3869 -0.7304
 9782SOL    HW130796   1.840   2.841   0.434 -0.7046 -0.1955 -0.0688
 9782SOL    HW230797   1.950   2.935   0.390 -0.7054 -0.6599 -1.1028
 9783SOL     OW30798   6.334   2.425   6.667  0.1606 -0.0820  0.7951
 9783SOL    HW130799   6.363   2.334   6.667 -0.8515 -0.4297  0.1812
 9783SOL    HW230800   6.412   2.475   6.690  0.6905 -1.1126  1.3268
 9784SOL     OW30801   5.441   1.616   6.557 -0.2973  0.3271  0.2133
 9784SOL    HW130802   5.387   1.607   6.636 -0.3585 -2.2322 -0.0207
 9784SOL    HW230803   5.415   1.699   6.519 -1.2366  0.9883  2.1724
 9785SOL     OW30804   5.827   5.196   6.237  0.2688  0.0986 -0.3185
 9785SOL    HW130805   5.732   5.205   6.247  0.1931 -2.2847  3.3476
 9785SOL    HW230806   5.837   5.117   6.184  0.1721 -0.2303  0.1490
 9786SOL     OW30807   0.754   1.427   6.042 -0.0647  0.3339  0.1403
 9786SOL    HW130808   0.815   1.499   6.060 -1.4173  1.6692 -0.4171
 9786SOL    HW230809   0.702   1.457   5.968 -2.4025 -0.1115  1.5091
 9787SOL     OW30810   3.068   0.091   0.042 -0.0037 -0.0317  0.0795
 9787SOL    HW130811   3.080   0.009   0.090  0.3261 -0.1306 -0.1691
 9787SOL    HW230812   3.156   0.127   0.034  0.3479 -1.2264 -2.5816
 9788SOL     OW30813   2.254   4.746   3.352  0.1100 -0.5882  0.5055
 9788SOL    HW130814   2.233   4.765   3.443 -0.6933 -1.0301  0.4191
 9788SOL    HW230815   2.327   4.684   3.356  0.8563  0.2896  0.8209
 9789SOL     OW30816   4.490   7.037   4.394  0.1715  0.5342  0.1426
 9789SOL    HW130817   4.449   6.963   4.437 -1.8151  1.8342  0.5905
 9789SOL    HW230818   4.572   7.050   4.441 -0.6855  0.2440  1.7734
 9790SOL     OW30819   0.542   2.135   1.271 -0.4403  0.7061 -0.4769
 9790SOL    HW130820   0.488   2.058   1.291  1.6434 -0.2032  2.3975
 9790SOL    HW230821   0.501   2.206   1.320  0.1043  0.3209  0.5898
 9791SOL     OW30822   0.784   0.090   3.066  0.2858  0.2274 -0.5383
 9791SOL    HW130823   0.777  -0.006   3.073 -2.7431  0.3729 -0.2067
 9791SOL    HW230824   0.793   0.120   3.156 -1.9629  0.3357 -0.2925
 9792SOL     OW30825   5.257   6.328   4.119  0.5497 -0.4835 -0.2417
 9792SOL    HW130826   5.213   6.273   4.054 -0.8984  0.6299 -0.2610
 9792SOL    HW230827   5.220   6.416   4.105  3.4512  0.7732 -0.8758
 9793SOL     OW30828   2.243   3.263   3.881  0.3300  0.1948  0.1334
 9793SOL    HW130829   2.322   3.308   3.910  0.2033 -0.5097  1.6656
 9793SOL    HW230830   2.218   3.208   3.955 -1.7974  0.6623 -0.1743
 9794SOL     OW30831   5.549   6.570   1.510 -0.2559 -0.0293 -0.2931
 9794SOL    HW130832   5.473   6.523   1.546 -0.5180  0.1681 -0.5783
 9794SOL    HW230833   5.602   6.502   1.469 -0.4517 -0.1259 -0.3894
 9795SOL     OW30834   6.829   4.209   3.120  0.3117  0.0855 -0.3323
 9795SOL    HW130835   6.885   4.185   3.193 -2.3243  0.0733  1.8363
 9795SOL    HW230836   6.844   4.303   3.108  1.4896 -0.1106 -0.4607
 9796SOL     OW30837   3.048   1.028   5.916  0.7261  0.6557  0.1004
 9796SOL    HW130838   2.970   1.071   5.951 -1.8370 -3.1794 -0.2192
 9796SOL    HW230839   3.041   1.039   5.821  1.9553  2.2485  0.1513
 9797SOL     OW30840   6.548   1.451   4.407 -0.0545  0.2792 -0.5431
 9797SOL    HW130841   6.619   1.404   4.362  0.8266 -0.2185  1.2559
 9797SOL    HW230842   6.477   1.387   4.412  0.1244  0.0759 -0.5587
 9798SOL     OW30843   4.348   1.043   2.732  0.5616 -0.6626  0.1138
 9798SOL    HW130844   4.400   0.965   2.712 -0.0626 -0.6358 -1.8331
 9798SOL    HW230845   4.265   1.029   2.686 -0.0616  0.5771  0.8122
 9799SOL     OW30846   5.430   0.270   5.272 -0.1057  0.2857  0.0860
 9799SOL    HW130847   5.371   0.203   5.307  0.9980 -0.1411  1.2000
 9799SOL    HW230848   5.466   0.313   5.350  2.9396 -1.1105 -0.4289
 9800SOL     OW30849   3.805   5.900   4.249  0.0147 -0.2774  0.6343
 9800SOL    HW130850   3.747   5.888   4.324 -1.0114 -2.1260 -0.3977
 9800SOL    HW230851   3.771   5.977   4.205 -1.7196 -1.3294  0.0439
 9801SOL     OW30852   3.189   5.930   3.979  0.6555 -0.5563  0.0873
 9801SOL    HW130853   3.117   5.878   4.015 -0.1863 -0.1957 -1.0310
 9801SOL    HW230854   3.180   6.015   4.021 -1.4648  0.4705 -2.1963
 9802SOL     OW30855   0.350   4.009   2.765  0.2382  0.0081 -0.5125
 9802SOL    HW130856   0.340   4.102   2.741 -0.3537  0.1368  0.2333
 9802SOL    HW230857   0.420   4.009   2.830 -0.4881  0.0633  0.2784
 9803SOL     OW30858   3.618   1.003   6.501  0.3396 -0.6133  0.1618
 9803SOL    HW130859   3.553   1.073   6.504  1.7320  0.7136  1.8985
 9803SOL    HW230860   3.672   1.017   6.579  1.6790 -2.6631 -0.3167
 9804SOL     OW30861   6.789   5.142   0.273 -0.3560  0.0204 -0.6455
 9804SOL    HW130862   6.881   5.164   0.259 -0.7609  0.9244 -2.1083
 9804SOL    HW230863   6.787   5.101   0.359  1.2597  0.9064 -0.1445
 9805SOL     OW30864   6.335   1.807   4.884  0.2524  0.1680  0.2105
 9805SOL    HW130865   6.297   1.894   4.903 -0.6038  0.0536 -0.9133
 9805SOL    HW230866   6.306   1.787   4.796 -0.5682 -1.8088  0.8908
 9806SOL     OW30867   3.273   6.386   4.283  0.2433  0.3136 -0.0791
 9806SOL    HW130868   3.325   6.380   4.363  1.2617 -0.8431 -0.7875
 9806SOL    HW230869   3.287   6.476   4.252  2.1275 -0.0464 -0.4146
 9807SOL     OW30870   1.359   3.817   3.173  0.1314 -0.1593 -0.4907
 9807SOL    HW130871   1.357   3.818   3.269 -0.6277 -1.5531 -0.4764
 9807SOL    HW230872   1.303   3.744   3.148 -1.6114  1.6139 -2.0845
 9808SOL     OW30873   1.662   0.683   2.812 -0.3795  0.5370 -0.2491
 9808SOL    HW130874   1.619   0.760   2.775 -0.9027  0.6730  0.6238
 9808SOL    HW230875   1.592   0.634   2.854 -0.2706 -1.0160 -1.7310
 9809SOL     OW30876   1.680   0.639   0.012  0.0236  0.4283  0.1818
 9809SOL    HW130877   1.627   0.649   0.091  0.2898 -2.5939  0.8498
 9809SOL    HW230878   1.622   0.662  -0.060 -1.6956 -1.1043  1.0084
 9810SOL     OW30879   3.699   1.371   2.701 -0.0157 -0.2988  0.3184
 9810SOL    HW130880   3.761   1.418   2.646 -0.9936  0.7710  0.0874
 9810SOL    HW230881   3.665   1.301   2.645  0.6781 -0.6377  0.3177
 9811SOL     OW30882   1.760   2.141   1.106 -0.3344  0.1797  0.5869
 9811SOL    HW130883   1.832   2.149   1.043 -0.5254  0.8102  0.4402
 9811SOL    HW230884   1.803   2.122   1.189  0.0383  1.0003  0.5895
 9812SOL     OW30885   6.222   6.546   3.655 -0.1224  0.1947 -0.7253
 9812SOL    HW130886   6.207   6.557   3.749 -1.2178 -1.0707 -0.7232
 9812SOL    HW230887   6.235   6.635   3.622 -1.2366  0.7908  0.3667
 9813SOL     OW30888   1.709   0.163   5.125  0.6984  0.4434  0.2222
 9813SOL    HW130889   1.793   0.179   5.081  0.5858  1.8148  0.4332
 9813SOL    HW230890   1.646   0.154   5.054  0.7406  1.2491  0.0716
 9814SOL     OW30891   6.523   1.004   0.444 -0.4143 -0.1500 -0.2077
 9814SOL    HW130892   6.480   0.924   0.474 -1.8139 -0.1640 -2.0487
 9814SOL    HW230893   6.457   1.073   0.457  0.2365  0.4526 -0.0153
 9815SOL     OW30894   3.607   3.557   5.033 -0.1547  0.4912  0.1515
 9815SOL    HW130895   3.643   3.504   5.104 -1.8458  1.1290  1.5766
 9815SOL    HW230896   3.513   3.559   5.050 -0.5831  0.9480 -1.9553
 9816SOL     OW30897   6.903   5.303   0.588  0.0662  0.1548  0.0215
 9816SOL    HW130898   6.893   5.209   0.572  0.9061 -0.2921  1.8622
 9816SOL    HW230899   6.820   5.342   0.560 -1.3104 -1.4950  1.5676
 9817SOL     OW30900   0.924   6.937   0.823 -0.1146 -0.3584  0.1022
 9817SOL    HW130901   0.864   7.005   0.853 -1.2877 -0.8088 -1.1388
 9817SOL    HW230902   0.967   6.975   0.746  1.5775  0.1311  1.2300
 9818SOL     OW30903   5.743   0.267   6.816  0.3382 -0.3026  0.1820
 9818SOL    HW130904   5.670   0.252   6.755  0.3049  1.2643 -0.2302
 9818SOL    HW230905   5.778   0.180   6.835 -1.4201 -1.0581  0.1215
 9819SOL     OW30906   6.362   4.053   4.132  0.6482  0.4587 -0.2779
 9819SOL    HW130907   6.391   3.962   4.125 -0.3343  0.1737 -0.8200
 9819SOL    HW230908   6.351   4.082   4.041 -1.9529  0.1264 -0.1500
 9820SOL     OW30909   0.010   2.486   0.766  0.2319  0.1650  0.0352
 9820SOL    HW130910   0.073   2.426   0.726 -2.2044 -1.7398 -1.2380
 9820SOL    HW230911  -0.038   2.432   0.829 -1.1381  1.1178 -0.1430
 9821SOL     OW30912   2.976   7.106   1.477 -0.3721 -0.5254  0.2962
 9821SOL    HW130913   2.885   7.131   1.487 -0.5114 -0.5968 -0.6791
 9821SOL    HW230914   2.977   7.048   1.400  0.7903  1.2369 -1.1020
 9822SOL     OW30915   0.189   2.103   5.530 -0.0218 -0.1293  0.0433
 9822SOL    HW130916   0.130   2.027   5.527 -0.3695  0.1473 -0.2391
 9822SOL    HW230917   0.131   2.178   5.516  0.3293  0.1848  0.2700
 9823SOL     OW30918   0.852   4.797   2.827  0.0277 -0.1577 -0.7002
 9823SOL    HW130919   0.894   4.713   2.847 -0.0224  0.2918  1.6513
 9823SOL    HW230920   0.911   4.862   2.864  0.7355  1.0175 -3.6513
 9824SOL     OW30921   4.914   0.937   0.853  0.2009  0.0531  0.3748
 9824SOL    HW130922   4.895   0.847   0.825 -0.9992  0.1115  0.9609
 9824SOL    HW230923   4.882   0.941   0.943  2.0111  0.5203  1.0420
 9825SOL     OW30924   1.543   2.207   1.457 -0.8724 -0.4983 -0.4923
 9825SOL    HW130925   1.576   2.203   1.547 -3.4839  0.8875  0.6614
 9825SOL    HW230926   1.466   2.150   1.458 -0.2093 -1.4698 -2.2400
 9826SOL     OW30927   2.788   2.590   5.971  0.0618 -0.1127  0.1907
 9826SOL    HW130928   2.739   2.617   6.049  1.9029  0.0174  1.3560
 9826SOL    HW230929   2.858   2.534   6.005 -0.1693 -1.5897 -1.5835
 9827SOL     OW30930   0.496   1.741   5.584 -0.3814 -0.0258 -0.5010
 9827SOL    HW130931   0.487   1.751   5.489 -0.5512  0.6081 -0.4234
 9827SOL    HW230932   0.420   1.689   5.610 -0.8476  0.5996 -0.5913
 9828SOL     OW30933   1.946   0.672   1.883  0.6211  0.1166  0.7706
 9828SOL    HW130934   1.934   0.765   1.904 -1.0228 -0.0288  0.6111
 9828SOL    HW230935   1.865   0.630   1.913  1.1328 -1.1918  0.3923
 9829SOL     OW30936   2.632   4.973   3.220 -0.2119  0.2337 -0.3138
 9829SOL    HW130937   2.713   4.958   3.173 -0.2535  1.3842 -0.7818
 9829SOL    HW230938   2.654   4.959   3.312  0.4835  0.4068 -0.4540
 9830SOL     OW30939   0.670   2.971   3.214 -0.1036  0.1869 -0.6074
 9830SOL    HW130940   0.690   2.983   3.121 -1.1891 -1.2535 -1.0749
 9830SOL    HW230941   0.612   3.044   3.236  1.2567  1.3106 -0.6685
 9831SOL     OW30942   1.209   4.886   7.125 -0.2842  0.0809  0.1591
 9831SOL    HW130943   1.171   4.865   7.040  0.5720 -2.0038  0.2272
 9831SOL    HW230944   1.284   4.828   7.132 -0.0799  0.5264  2.1595
 9832SOL     OW30945   0.383   1.202   5.729  0.5420 -0.2631 -0.1351
 9832SOL    HW130946   0.338   1.162   5.654  0.9008  1.9298 -1.5930
 9832SOL    HW230947   0.312   1.245   5.778  0.4315 -0.9337  0.3082
 9833SOL     OW30948   6.043   0.671   1.263  0.5007 -0.2125 -0.1300
 9833SOL    HW130949   6.087   0.589   1.286  1.9274 -0.0758 -2.1452
 9833SOL    HW230950   5.969   0.645   1.209  0.7186 -0.2004 -0.4357
 9834SOL     OW30951   3.644   4.881   4.754 -0.2304  0.0083  0.2306
 9834SOL    HW130952   3.663   4.834   4.836  0.4932 -0.7805 -0.3775
 9834SOL    HW230953   3.550   4.870   4.742 -0.1396 -0.9289  0.3226
 9835SOL     OW30954   6.300   0.076   1.673  0.0064 -0.3867 -0.0968
 9835SOL    HW130955   6.258   0.162   1.671 -1.4372 -1.0705 -1.0183
 9835SOL    HW230956   6.380   0.088   1.622 -0.9514  0.0735 -1.5730
 9836SOL     OW30957   3.078   5.072   0.134  1.1172 -0.2440 -0.3238
 9836SOL    HW130958   3.169   5.049   0.153  1.6658 -0.3598 -2.7879
 9836SOL    HW230959   3.060   5.031   0.049 -1.3172 -0.3899  0.2093
 9837SOL     OW30960   3.311   6.757   7.051 -0.3552  0.8334 -0.0688
 9837SOL    HW130961   3.375   6.689   7.072  0.7914  1.7581 -0.4508
 9837SOL    HW230962   3.257   6.764   7.129  0.8401  0.9247  0.7833
 9838SOL     OW30963   0.830   5.869   4.094  0.3180  0.4392  0.1382
 9838SOL    HW130964   0.851   5.794   4.150 -0.8115  1.2161  1.6580
 9838SOL    HW230965   0.764   5.918   4.142 -0.8689  1.0570 -1.9741
 9839SOL     OW30966   5.115   3.387   5.291 -0.3182 -0.1331 -0.5144
 9839SOL    HW130967   5.086   3.454   5.230  2.2977  0.2290 -1.4879
 9839SOL    HW230968   5.152   3.435   5.365 -1.0240 -0.5645  0.1472
 9840SOL     OW30969   5.491   4.257   4.101  0.2134 -0.5806  0.3465
 9840SOL    HW130970   5.576   4.280   4.138 -1.0897  0.9310  2.6638
 9840SOL    HW230971   5.504   4.262   4.007  2.3183  1.1208  0.6361
 9841SOL     OW30972   4.831   5.038   3.628 -0.5173 -0.2846  0.0343
 9841SOL    HW130973   4.881   5.075   3.701  0.0135  0.3337 -0.6308
 9841SOL    HW230974   4.749   5.009   3.668 -0.7649  1.1995  0.6675
 9842SOL     OW30975   3.173   0.094   6.904  0.3707 -0.1243 -0.5069
 9842SOL    HW130976   3.111   0.104   6.977 -0.6960 -1.5482 -1.1902
 9842SOL    HW230977   3.241   0.036   6.939 -0.0703 -0.7001 -0.5930
 9843SOL     OW30978   6.077   1.113   1.531 -0.0793  0.4803  0.3413
 9843SOL    HW130979   6.008   1.057   1.567 -0.7286  1.3898  0.5463
 9843SOL    HW230980   6.030   1.183   1.486  0.6776  1.6543  1.3031
 9844SOL     OW30981   5.500   5.192   2.904  0.4345  0.8033 -0.3821
 9844SOL    HW130982   5.441   5.247   2.956  0.5125  0.4395  0.1032
 9844SOL    HW230983   5.578   5.182   2.958 -0.0474 -0.7791  0.0960
 9845SOL     OW30984   2.322   4.278   0.593  0.4103 -0.1543 -0.1460
 9845SOL    HW130985   2.416   4.276   0.573  0.7459 -1.0655  1.3007
 9845SOL    HW230986   2.292   4.364   0.565  1.2501 -0.5321 -2.3882
 9846SOL     OW30987   1.028   4.469   1.690  0.2783 -0.6149  0.5518
 9846SOL    HW130988   1.110   4.518   1.691  0.5466 -1.0559  0.4662
 9846SOL    HW230989   1.055   4.378   1.699 -0.1639 -0.8095 -0.0676
 9847SOL     OW30990   3.615   4.428   1.842 -0.0409 -0.6673 -0.0422
 9847SOL    HW130991   3.665   4.353   1.809  0.2096 -0.6565  0.3173
 9847SOL    HW230992   3.577   4.397   1.924 -0.4790 -0.6149 -0.2186
 9848SOL     OW30993   5.727   0.195   3.660  0.4365  0.4812  0.2267
 9848SOL    HW130994   5.706   0.239   3.578  0.6806 -0.0606 -0.1278
 9848SOL    HW230995   5.657   0.223   3.720  1.0008  1.9585  0.2513
 9849SOL     OW30996   4.851   5.181   0.729 -0.1824  0.9605  0.8454
 9849SOL    HW130997   4.791   5.195   0.655 -0.3333  2.4596  1.2095
 9849SOL    HW230998   4.793   5.156   0.801 -0.6736  3.8459  1.5998
 9850SOL     OW30999   1.119   4.261   5.451  0.1009  0.0053 -0.2444
 9850SOL    HW131000   1.064   4.339   5.449  0.9764  0.6336 -0.4058
 9850SOL    HW231001   1.118   4.228   5.361 -0.1439 -0.0943 -0.2079
 9851SOL     OW31002   2.276   6.478   6.594 -0.1675 -0.6547 -0.2025
 9851SOL    HW131003   2.323   6.399   6.568 -0.7879 -1.8751  2.0433
 9851SOL    HW231004   2.222   6.450   6.669 -0.2194  1.9511  0.8529
 9852SOL     OW31005   1.242   3.064   2.978 -0.0729 -0.5299 -0.5837
 9852SOL    HW131006   1.149   3.086   2.989  0.2717  0.5660  0.3429
 9852SOL    HW231007   1.258   2.993   3.040 -0.1280 -0.2239 -0.2179
 9853SOL     OW31008   0.884   6.527   1.125  0.4637 -0.2477  0.5672
 9853SOL    HW131009   0.899   6.545   1.218  1.8228  1.2743  0.0859
 9853SOL    HW231010   0.955   6.467   1.101  0.9736  0.4912  0.1969
 9854SOL     OW31011   0.508   3.470   1.878 -0.5235  0.3097 -0.1475
 9854SOL    HW131012   0.546   3.486   1.791 -0.8777  0.2806 -0.3097
 9854SOL    HW231013   0.493   3.557   1.914 -2.1323  0.3802 -0.8909
 9855SOL     OW31014   0.363   4.593   6.058 -0.1870 -0.0529 -0.6887
 9855SOL    HW131015   0.427   4.526   6.032 -1.1885 -0.4967 -2.1891
 9855SOL    HW231016   0.398   4.630   6.139  0.0653 -2.8665  0.6126
 9856SOL     OW31017   4.548   3.700   0.082  0.4930  0.2531 -0.4521
 9856SOL    HW131018   4.565   3.793   0.071  2.3501 -0.1274 -1.0150
 9856SOL    HW231019   4.534   3.668  -0.007 -0.0248 -0.0481 -0.2690
 9857SOL     OW31020   4.885   2.662   1.915 -0.1039 -0.4819 -0.3152
 9857SOL    HW131021   4.975   2.630   1.924  0.2473  0.9024  1.5585
 9857SOL    HW231022   4.833   2.583   1.898  1.4364 -1.3025 -1.4296
 9858SOL     OW31023   5.278   1.460   0.809 -0.4215 -0.2089  0.1497
 9858SOL    HW131024   5.347   1.514   0.846  0.1220 -0.4974 -0.4223
 9858SOL    HW231025   5.199   1.514   0.816 -0.1727  0.0631  0.9342
 9859SOL     OW31026   4.535   1.949   1.746 -0.4023  0.4107 -0.2073
 9859SOL    HW131027   4.608   2.011   1.741 -1.6004  2.3074  2.7738
 9859SOL    HW231028   4.482   1.968   1.669  1.3789  0.1061 -1.5734
 9860SOL     OW31029   5.182   2.412   3.417 -0.2610 -0.0342 -0.5467
 9860SOL    HW131030   5.259   2.466   3.436 -0.4746  1.3694 -3.1938
 9860SOL    HW231031   5.108   2.471   3.430 -0.8737 -1.0396  0.8264
 9861SOL     OW31032   0.057   5.249   4.336  0.5318  0.6543  0.8085
 9861SOL    HW131033   0.012   5.199   4.404 -1.3256  1.7950  0.5005
 9861SOL    HW231034   0.013   5.335   4.337  0.2200  0.6014 -2.0147
 9862SOL     OW31035   5.244   1.020   0.124 -0.1692  0.4518  0.3486
 9862SOL    HW131036   5.223   1.101   0.076  0.8584  0.2712 -0.4398
 9862SOL    HW231037   5.278   1.050   0.208 -0.3586  0.8234  0.2943
 9863SOL     OW31038   1.037   5.492   6.801  0.1943 -0.4446  0.0200
 9863SOL    HW131039   1.083   5.565   6.760 -0.5770  0.7965  1.2716
 9863SOL    HW231040   1.026   5.428   6.730  0.3047  0.9204 -1.2850
 9864SOL     OW31041   6.179   4.529   0.517  0.4940 -0.1457 -0.1147
 9864SOL    HW131042   6.167   4.435   0.523  0.1252 -0.0532  0.6122
 9864SOL    HW231043   6.153   4.551   0.427  0.6625 -0.7409 -0.3106
 9865SOL     OW31044   4.176   0.792   0.725 -0.0225 -0.2029 -0.0238
 9865SOL    HW131045   4.107   0.771   0.663  0.3588 -0.5141 -0.3519
 9865SOL    HW231046   4.218   0.870   0.689  0.6192 -0.7638 -0.5131
 9866SOL     OW31047   4.307   3.245   6.471  0.0003 -0.2986  0.7713
 9866SOL    HW131048   4.338   3.178   6.532  2.0819 -0.2183 -0.1031
 9866SOL    HW231049   4.365   3.320   6.486  0.7482 -0.3696 -1.4356
 9867SOL     OW31050   0.924   0.706   3.198  0.0266  0.0130  0.4361
 9867SOL    HW131051   0.978   0.776   3.235  1.1886 -0.6865  0.1078
 9867SOL    HW231052   0.922   0.724   3.104  0.1702 -0.2930  0.3746
 9868SOL     OW31053   6.017   5.881   2.041  0.0353 -0.0902  0.8795
 9868SOL    HW131054   6.039   5.974   2.053 -0.9448  0.0846  1.3314
 9868SOL    HW231055   6.101   5.836   2.050  0.9243  0.9170 -1.4453
 9869SOL     OW31056   1.205   3.157   2.250 -0.2311  0.0798 -0.2308
 9869SOL    HW131057   1.237   3.067   2.250 -0.7782 -0.1202  0.5070
 9869SOL    HW231058   1.276   3.207   2.210  2.0261 -0.0125  3.2303
 9870SOL     OW31059   0.483   5.079   0.246 -0.0107 -0.4903 -0.7835
 9870SOL    HW131060   0.469   4.996   0.291 -0.3279  0.0501  0.1537
 9870SOL    HW231061   0.427   5.076   0.169 -1.7282 -0.2645  0.4145
 9871SOL     OW31062   1.448   5.510   0.013 -0.4825 -0.1513  0.1579
 9871SOL    HW131063   1.505   5.586   0.007 -2.0377  1.3998  3.0267
 9871SOL    HW231064   1.369   5.535  -0.035 -1.0694  0.1919  1.2602
 9872SOL     OW31065   2.377   3.682   1.150 -0.3993  0.4280  0.4224
 9872SOL    HW131066   2.461   3.636   1.144  0.1720  1.2009  1.9620
 9872SOL    HW231067   2.318   3.631   1.094  0.9790 -0.3723 -0.3570
 9873SOL     OW31068   2.315   4.418   1.060  0.0683  0.2434  0.2195
 9873SOL    HW131069   2.330   4.346   0.998  2.2403 -0.8373  1.8484
 9873SOL    HW231070   2.305   4.374   1.145  2.5010  1.7931  1.4390
 9874SOL     OW31071   1.351   5.106   1.526  0.2511 -0.3858 -0.1286
 9874SOL    HW131072   1.285   5.060   1.474 -0.4417  0.0773  0.3139
 9874SOL    HW231073   1.356   5.194   1.487 -1.6425  0.6007  1.6565
 9875SOL     OW31074   0.992   3.776   0.362 -0.1587  0.2816  0.1679
 9875SOL    HW131075   1.012   3.735   0.446  1.1766 -0.2223 -0.3738
 9875SOL    HW231076   0.976   3.703   0.303 -2.2992  0.6382  0.2155
 9876SOL     OW31077   3.828   5.634   6.548 -0.0565 -0.5291 -0.0580
 9876SOL    HW131078   3.867   5.570   6.489  1.6641 -1.9060  2.4123
 9876SOL    HW231079   3.901   5.689   6.577 -0.0416 -2.0527  3.3047
 9877SOL     OW31080   6.138   7.099   5.526 -0.0219 -0.9795  0.3245
 9877SOL    HW131081   6.204   7.077   5.461 -0.6243 -1.7799 -0.0469
 9877SOL    HW231082   6.143   7.194   5.535  0.1709 -0.8707 -0.7918
 9878SOL     OW31083   1.110   1.581   1.633  0.4686 -0.0588  0.2036
 9878SOL    HW131084   1.138   1.497   1.667  1.8555 -0.2506 -1.2701
 9878SOL    HW231085   1.016   1.571   1.617  0.4806 -1.0718  0.7261
 9879SOL     OW31086   4.813   7.098   0.488  0.9073  1.2551 -0.1721
 9879SOL    HW131087   4.820   7.193   0.486  4.0976  1.1334 -0.1014
 9879SOL    HW231088   4.882   7.067   0.430 -0.8075 -1.0786 -1.1661
 9880SOL     OW31089   2.721   5.690   5.075  0.1069  0.0900 -0.2993
 9880SOL    HW131090   2.815   5.681   5.062  0.3787 -0.8803  1.8571
 9880SOL    HW231091   2.682   5.624   5.017  0.7088  0.6701 -1.3880
 9881SOL     OW31092   2.438   0.766   3.240  0.3045 -0.4244  0.5846
 9881SOL    HW131093   2.468   0.747   3.151 -0.4387  0.9558  0.0169
 9881SOL    HW231094   2.397   0.684   3.269 -0.7593 -0.4599 -0.9067
 9882SOL     OW31095   3.926   6.688   6.232  0.4325 -0.6031  0.2272
 9882SOL    HW131096   4.010   6.648   6.259  0.9673  0.4948  0.2383
 9882SOL    HW231097   3.951   6.759   6.173 -0.2640  1.5224  2.3075
 9883SOL     OW31098   4.476   0.525   5.097 -0.3699 -0.3550 -0.2089
 9883SOL    HW131099   4.516   0.565   5.174 -0.0640  0.2473 -0.6733
 9883SOL    HW231100   4.498   0.584   5.025  0.2700 -1.4443 -0.9496
 9884SOL     OW31101   6.467   2.933   2.890 -1.0195  0.2152 -0.5971
 9884SOL    HW131102   6.488   2.938   2.796 -1.8171  0.7560 -0.7594
 9884SOL    HW231103   6.456   3.024   2.916 -1.6563  0.0278 -0.1833
 9885SOL     OW31104   4.324   3.258   6.182 -0.0706  0.3440  0.6539
 9885SOL    HW131105   4.292   3.248   6.272  0.2303  1.6626  0.9171
 9885SOL    HW231106   4.409   3.300   6.191  0.6105 -0.8262 -0.1889
 9886SOL     OW31107   5.932   2.902   0.227  0.4399  0.2426  0.2571
 9886SOL    HW131108   5.844   2.921   0.196  0.4762  0.7089  0.4415
 9886SOL    HW231109   5.919   2.839   0.299  0.1779  1.1316  1.0072
 9887SOL     OW31110   4.761   4.303   6.546  0.1421  0.3738  0.2353
 9887SOL    HW131111   4.812   4.329   6.469  0.0710 -1.8116 -0.6179
 9887SOL    HW231112   4.672   4.291   6.512  0.1177 -0.6475  0.6137
 9888SOL     OW31113   0.352   1.951   5.703  0.9933  0.1099 -0.2337
 9888SOL    HW131114   0.404   1.883   5.659 -2.1257 -2.1715 -0.7916
 9888SOL    HW231115   0.324   2.009   5.633  0.4810 -0.3556 -0.4257
 9889SOL     OW31116   2.494   6.523   4.112  0.4055 -0.0315  0.3333
 9889SOL    HW131117   2.501   6.428   4.106 -1.4285 -0.0913 -1.9861
 9889SOL    HW231118   2.400   6.541   4.109  0.7148  1.8836  0.5438
 9890SOL     OW31119   3.191   5.449   2.128  0.3334 -0.1862  0.7622
 9890SOL    HW131120   3.223   5.474   2.041 -0.0497  0.7381  0.8706
 9890SOL    HW231121   3.221   5.519   2.185 -0.9587  0.1645  1.0489
 9891SOL     OW31122   6.067   6.312   3.595 -0.1882 -0.5477 -0.1399
 9891SOL    HW131123   6.129   6.366   3.643  0.3864  0.9873 -2.4516
 9891SOL    HW231124   6.096   6.222   3.611  0.4251 -0.0524  1.6977
 9892SOL     OW31125   1.574   2.336   6.181  0.2026 -0.6047  0.2430
 9892SOL    HW131126   1.500   2.287   6.218 -1.5076  0.7574 -1.1944
 9892SOL    HW231127   1.625   2.363   6.258 -0.8486 -1.4943  1.2933
 9893SOL     OW31128   3.323   0.337   4.545 -0.3280  0.8651 -0.2524
 9893SOL    HW131129   3.288   0.306   4.462  0.6539  0.5266 -0.5434
 9893SOL    HW231130   3.402   0.386   4.522 -1.0677  2.4195  0.3204
 9894SOL     OW31131   3.394   3.901   2.213 -0.0948  0.4681 -0.2384
 9894SOL    HW131132   3.410   3.819   2.165 -0.4494  0.2858 -0.0468
 9894SOL    HW231133   3.368   3.872   2.300  1.8039  0.7964  0.4906
 9895SOL     OW31134   3.353   3.159   0.517  0.2054  0.1544  0.7163
 9895SOL    HW131135   3.279   3.214   0.542 -0.6634 -0.6118 -0.1028
 9895SOL    HW231136   3.422   3.221   0.492  0.3719  0.9079  2.8446
 9896SOL     OW31137   6.829   4.011   2.647 -0.3575  0.5997 -0.7028
 9896SOL    HW131138   6.755   4.057   2.607 -0.6904 -0.5976 -1.5304
 9896SOL    HW231139   6.800   3.993   2.736  0.0677  2.5853 -0.1223
 9897SOL     OW31140   4.981   6.521   1.005 -0.3418 -0.6334  0.2005
 9897SOL    HW131141   5.064   6.490   0.969 -1.4300 -0.5165 -2.6235
 9897SOL    HW231142   4.918   6.454   0.981 -2.2108  2.0815 -3.4755
 9898SOL     OW31143   3.339   0.966   0.703 -0.4874  0.0261 -0.2370
 9898SOL    HW131144   3.285   1.021   0.647  0.3846 -0.0233 -1.1436
 9898SOL    HW231145   3.392   1.028   0.754 -0.1621  0.0476 -0.5982
 9899SOL     OW31146   4.694   3.543   1.769  0.4365 -0.3843 -0.2019
 9899SOL    HW131147   4.761   3.485   1.805  1.3715  0.1498 -1.0259
 9899SOL    HW231148   4.725   3.564   1.680 -1.1544 -0.6527 -0.8599
 9900SOL     OW31149   0.957   2.143   3.131  0.0647  0.9938 -0.1423
 9900SOL    HW131150   0.950   2.152   3.226  1.0771  1.7589 -0.1228
 9900SOL    HW231151   0.891   2.078   3.108 -1.0291  1.6732  0.9410
 9901SOL     OW31152   1.337   4.379   5.541 -0.7116 -0.4833  0.2705
 9901SOL    HW131153   1.260   4.336   5.503 -0.2665 -0.5538 -0.6006
 9901SOL    HW231154   1.306   4.466   5.568 -0.7531  0.1743 -1.6798
 9902SOL     OW31155   2.219   0.949   6.338 -0.4695 -0.2575 -0.0479
 9902SOL    HW131156   2.274   0.907   6.272 -0.1367  0.1766 -0.0546
 9902SOL    HW231157   2.142   0.979   6.290  0.5884  1.7129 -0.6659
 9903SOL     OW31158   5.470   4.636   3.877  0.4552 -0.6840  0.3982
 9903SOL    HW131159   5.559   4.617   3.908  0.0111 -3.5350  0.2463
 9903SOL    HW231160   5.472   4.614   3.784 -0.3841 -0.8094  0.4001
 9904SOL     OW31161   4.114   6.457   1.371 -0.4147  0.5631 -0.6168
 9904SOL    HW131162   4.088   6.389   1.308  0.1136  0.0002 -0.2290
 9904SOL    HW231163   4.209   6.455   1.371 -0.3722 -1.1046  1.9697
 9905SOL     OW31164   2.064   5.999   1.932  0.1929 -0.2718  0.4765
 9905SOL    HW131165   2.023   5.954   2.006  0.2255  1.1163  1.3835
 9905SOL    HW231166   1.991   6.033   1.881  0.0838 -2.9313 -1.3397
 9906SOL     OW31167   3.291   2.573   1.075  0.2150 -0.2630 -0.0686
 9906SOL    HW131168   3.292   2.650   1.018 -1.6989 -0.4444 -0.4121
 9906SOL    HW231169   3.201   2.541   1.070  0.5668 -1.5734  1.3549
 9907SOL     OW31170   1.755   1.141   5.754 -0.4054 -0.0931  0.0775
 9907SOL    HW131171   1.825   1.187   5.709  0.2743 -1.0633  0.1045
 9907SOL    HW231172   1.694   1.210   5.781 -1.6635  0.4732 -3.6147
 9908SOL     OW31173   2.938   5.420   3.529  0.4545 -0.5498  0.8209
 9908SOL    HW131174   2.927   5.332   3.565 -0.1285 -0.9878 -0.3677
 9908SOL    HW231175   2.884   5.420   3.450  0.7665  0.7550  0.5878
 9909SOL     OW31176   6.984   3.567   5.830  0.2889  0.1458  0.2124
 9909SOL    HW131177   7.040   3.624   5.883  1.0275  0.6744 -1.0946
 9909SOL    HW231178   6.977   3.486   5.881  1.6870  0.3172  0.7218
 9910SOL     OW31179   7.133   0.441   0.694  0.6978 -0.0645 -0.9276
 9910SOL    HW131180   7.165   0.351   0.688  2.0627  0.3256  0.1753
 9910SOL    HW231181   7.195   0.492   0.642  1.5293  0.6007  0.6644
 9911SOL     OW31182   0.038   6.527   4.814  0.0033  0.0551 -0.4799
 9911SOL    HW131183  -0.056   6.535   4.827  0.0244 -1.5899  1.1473
 9911SOL    HW231184   0.047   6.462   4.744 -0.0860 -0.4528 -0.0271
 9912SOL     OW31185   3.975   6.151   1.714 -0.2636  0.4827 -0.0279
 9912SOL    HW131186   3.952   6.210   1.642 -2.1644  0.2702  0.3585
 9912SOL    HW231187   4.070   6.159   1.722 -0.1744  1.5172 -1.6779
 9913SOL     OW31188   3.693   4.086   4.998 -0.3762  0.0892  0.2196
 9913SOL    HW131189   3.702   3.990   4.999 -1.7426 -0.0849 -1.1836
 9913SOL    HW231190   3.700   4.111   5.090 -1.0056 -1.4816  0.7330
 9914SOL     OW31191   0.281   0.889   3.641  0.1834  0.5275  0.3709
 9914SOL    HW131192   0.250   0.910   3.728  1.1735  0.7693  0.6859
 9914SOL    HW231193   0.345   0.958   3.621  0.1364  0.3471 -0.4455
 9915SOL     OW31194   2.096   4.336   3.606  0.0144  0.3364  0.3818
 9915SOL    HW131195   2.052   4.260   3.645  0.8893  0.1543  1.0493
 9915SOL    HW231196   2.169   4.299   3.557 -1.3542  0.5098 -1.9626
 9916SOL     OW31197   0.357   4.359   1.112  0.5445 -0.0041 -0.2920
 9916SOL    HW131198   0.412   4.369   1.035 -0.1999  1.1191 -0.7107
 9916SOL    HW231199   0.415   4.376   1.186  0.9022  0.5375 -0.6917
 9917SOL     OW31200   2.129   1.765   5.547  0.0030  0.6200 -0.0447
 9917SOL    HW131201   2.169   1.832   5.492  0.5742  1.3178  1.1759
 9917SOL    HW231202   2.035   1.776   5.533  0.1447  0.7491 -0.9102
 9918SOL     OW31203   1.369   3.447   5.956  0.2266  0.4896 -0.0511
 9918SOL    HW131204   1.443   3.482   6.004 -0.7820  0.0229  1.9511
 9918SOL    HW231205   1.408   3.387   5.891  1.5913  0.3488  0.8733
 9919SOL     OW31206   0.342   6.318   2.527 -0.6441 -0.3330 -0.1221
 9919SOL    HW131207   0.433   6.292   2.515 -0.5206  0.9020 -2.3393
 9919SOL    HW231208   0.333   6.401   2.480 -2.6791  0.1190  0.9085
 9920SOL     OW31209   0.836   0.549   5.047  0.0564  0.3751 -0.9345
 9920SOL    HW131210   0.755   0.525   5.002  1.0612 -1.6151 -1.8099
 9920SOL    HW231211   0.807   0.581   5.133 -1.7767  2.1854 -2.1408
 9921SOL     OW31212   3.212   0.824   1.666 -0.0177 -0.4469  0.4782
 9921SOL    HW131213   3.286   0.763   1.665 -0.1374 -0.6093 -1.3180
 9921SOL    HW231214   3.184   0.830   1.575 -1.1101  0.9773  0.8645
 9922SOL     OW31215   2.618   6.039   4.260  0.1017 -0.1758  0.0111
 9922SOL    HW131216   2.664   6.081   4.333  0.7059 -0.0313 -0.4419
 9922SOL    HW231217   2.685   5.984   4.218 -0.6595 -1.5918  0.5791
 9923SOL     OW31218   1.259   5.406   4.293  0.2213  0.0365 -0.2987
 9923SOL    HW131219   1.209   5.432   4.370  0.9635 -0.6178  0.4318
 9923SOL    HW231220   1.349   5.427   4.315  0.2851  1.2936 -1.6364
 9924SOL     OW31221   6.658   5.014   2.429 -1.1643  0.0313  0.2651
 9924SOL    HW131222   6.598   4.956   2.476 -1.0891 -0.5648 -0.3580
 9924SOL    HW231223   6.609   5.041   2.351 -1.7222  1.9266  1.2032
 9925SOL     OW31224   1.646   0.921   1.009  0.1533 -0.0686  0.0997
 9925SOL    HW131225   1.579   0.968   1.059  0.7201  1.4395 -0.4983
 9925SOL    HW231226   1.716   0.906   1.072 -0.1269 -0.3469  0.3533
 9926SOL     OW31227   6.832   0.510   1.528 -0.7878  1.0307 -0.4037
 9926SOL    HW131228   6.851   0.422   1.559  1.3391  1.7321  0.4881
 9926SOL    HW231229   6.760   0.499   1.465 -1.8700 -1.0716  1.0724
 9927SOL     OW31230   2.461   4.080   4.098 -0.0047 -0.1229  0.3085
 9927SOL    HW131231   2.411   4.009   4.057 -0.8877  0.6785 -0.0459
 9927SOL    HW231232   2.394   4.142   4.128  0.7503  0.6715  0.3987
 9928SOL     OW31233   1.074   5.884   0.974 -0.1835  0.6710  0.3685
 9928SOL    HW131234   1.143   5.820   0.988  0.9949  1.5161 -1.2557
 9928SOL    HW231235   1.062   5.886   0.879  0.2327  3.2252  0.3018
 9929SOL     OW31236   4.986   0.372   3.217  1.0959 -0.1309 -0.3157
 9929SOL    HW131237   5.070   0.418   3.222  0.4017  1.1388  0.2783
 9929SOL    HW231238   4.927   0.436   3.177  0.3589 -0.9469 -0.5622
 9930SOL     OW31239   3.514   0.182   2.915  0.5804 -0.2643 -0.4444
 9930SOL    HW131240   3.599   0.144   2.937  0.8310  0.4233 -0.1696
 9930SOL    HW231241   3.507   0.174   2.820  1.3360  0.4144 -0.5706
 9931SOL     OW31242   2.376   1.199   6.330  0.4083  0.2950 -0.1844
 9931SOL    HW131243   2.311   1.141   6.370 -1.0121  2.8917  1.5764
 9931SOL    HW231244   2.354   1.198   6.236 -0.0316 -1.3658 -0.0967
 9932SOL     OW31245   0.759   5.698   5.303 -0.0338 -0.0247  0.1011
 9932SOL    HW131246   0.730   5.609   5.322  0.0677 -0.1976 -0.5490
 9932SOL    HW231247   0.854   5.694   5.308 -0.0028 -0.0981 -0.5716
 9933SOL     OW31248   1.704   3.263   5.973  0.5608  0.0722  0.5936
 9933SOL    HW131249   1.648   3.227   5.905  2.2402  0.3614 -1.0335
 9933SOL    HW231250   1.736   3.186   6.020 -1.6482 -0.0644  2.0123
 9934SOL     OW31251   1.898   3.424   2.615  0.3925  0.5185  0.0181
 9934SOL    HW131252   1.976   3.403   2.564  1.2026  1.5859  0.7834
 9934SOL    HW231253   1.931   3.448   2.702 -0.8123  0.6245  0.4690
 9935SOL     OW31254   1.163   3.974   5.905  0.1373  0.1636  0.0702
 9935SOL    HW131255   1.083   4.014   5.939  0.2861  0.8654 -0.3821
 9935SOL    HW231256   1.159   3.989   5.811 -2.4592 -5.5265 -1.1473
 9936SOL     OW31257   0.294   3.860   1.614 -0.4352  0.2300 -0.3300
 9936SOL    HW131258   0.245   3.778   1.606 -2.1164  1.2142 -0.5157
 9936SOL    HW231259   0.289   3.900   1.527 -0.6470  1.0658  0.0530
 9937SOL     OW31260   0.015   6.434   1.354  0.8073 -0.2080 -0.0650
 9937SOL    HW131261  -0.003   6.396   1.268 -0.2296 -1.8770  0.8430
 9937SOL    HW231262   0.007   6.361   1.415  1.4088  0.9621  1.4832
 9938SOL     OW31263   3.482   6.599   1.384 -0.2986 -0.3608 -0.6268
 9938SOL    HW131264   3.433   6.679   1.363 -1.3451 -0.9970 -0.6654
 9938SOL    HW231265   3.419   6.528   1.370  1.1392 -1.3684 -2.5009
 9939SOL     OW31266   0.533   1.989   4.261  0.0268 -0.2432  0.1003
 9939SOL    HW131267   0.548   2.033   4.177  0.0668 -0.3935  0.0304
 9939SOL    HW231268   0.503   1.901   4.238 -0.2125 -0.2004  0.2415
 9940SOL     OW31269   1.524   6.124   1.116  0.2080  0.4408 -0.4962
 9940SOL    HW131270   1.487   6.079   1.191 -1.1776  0.5933 -1.0576
 9940SOL    HW231271   1.574   6.197   1.154 -1.1320  0.9936  0.2700
 9941SOL     OW31272   0.102   5.562   3.836  0.3840  0.2288 -0.5486
 9941SOL    HW131273   0.030   5.613   3.798 -0.4450 -0.5634 -0.0786
 9941SOL    HW231274   0.166   5.555   3.766  0.0329  0.9957 -0.9577
 9942SOL     OW31275   4.641   0.209   1.025  0.1332 -0.0175 -0.1694
 9942SOL    HW131276   4.687   0.293   1.021 -0.8072  0.5131  0.0229
 9942SOL    HW231277   4.711   0.144   1.024  0.8542  0.7239 -1.3930
 9943SOL     OW31278   6.365   0.576   1.427 -0.3303 -0.0196  0.1924
 9943SOL    HW131279   6.333   0.641   1.490 -1.8350 -1.1929  0.6813
 9943SOL    HW231280   6.374   0.626   1.345 -0.7744  0.9566  0.7182
 9944SOL     OW31281   4.026   2.222   1.481  0.4181  0.0088  0.1399
 9944SOL    HW131282   3.972   2.154   1.520  1.5042 -0.1716  1.4248
 9944SOL    HW231283   4.000   2.303   1.526 -1.1477  0.5783 -1.6572
 9945SOL     OW31284   1.018   4.747   4.035  0.1192  0.2277  0.4296
 9945SOL    HW131285   0.975   4.830   4.016 -2.6319 -1.3526 -0.8915
 9945SOL    HW231286   0.998   4.730   4.127  1.7933  1.5379  1.0911
 9946SOL     OW31287   5.967   3.158   6.585  0.3022  0.1033  0.1807
 9946SOL    HW131288   5.987   3.224   6.520  3.0086 -0.6848  0.0914
 9946SOL    HW231289   5.940   3.207   6.662  0.9814  1.2580 -0.2959
 9947SOL     OW31290   6.576   1.020   1.399 -0.0350 -0.0792  0.3713
 9947SOL    HW131291   6.565   1.112   1.375 -0.1956 -0.5357 -1.4733
 9947SOL    HW231292   6.653   1.020   1.455  0.4113  1.1104 -0.1863
 9948SOL     OW31293   0.882   4.344   4.105 -0.5828  0.1580 -0.4528
 9948SOL    HW131294   0.877   4.368   4.198 -2.4985  0.3841 -0.5720
 9948SOL    HW231295   0.937   4.266   4.104 -1.4479 -0.5369  1.0510
 9949SOL     OW31296   0.815   0.131   0.067 -0.1492  0.3489 -0.2046
 9949SOL    HW131297   0.876   0.167   0.002 -0.7828 -0.9542 -1.6055
 9949SOL    HW231298   0.787   0.048   0.028 -1.6540  0.2108  1.1126
 9950SOL     OW31299   2.045   0.286   6.568 -0.2852  0.2309  0.6647
 9950SOL    HW131300   2.060   0.192   6.577 -1.6780  0.1229  2.4690
 9950SOL    HW231301   2.076   0.324   6.650  0.0777  1.3393  0.0430
 9951SOL     OW31302   6.656   0.880   0.037 -0.1598  0.3459 -0.0492
 9951SOL    HW131303   6.668   0.930   0.118  0.2433 -0.5633  0.4682
 9951SOL    HW231304   6.562   0.883   0.021 -0.1589  1.1491  0.0435
 9952SOL     OW31305   5.079   0.269   2.542 -0.5230 -0.0150 -0.1753
 9952SOL    HW131306   5.002   0.219   2.515 -0.7274  0.5924 -0.7259
 9952SOL    HW231307   5.152   0.221   2.503 -0.5949 -0.7385  0.5638
 9953SOL     OW31308   7.090   1.007   4.236 -0.1493  0.0051 -0.0533
 9953SOL    HW131309   7.172   0.972   4.203  1.0996  0.4998  2.2630
 9953SOL    HW231310   7.025   0.983   4.171  1.8632 -0.1724 -2.1024
 9954SOL     OW31311   1.181   0.520   6.865 -0.3138 -0.1858  0.2659
 9954SOL    HW131312   1.238   0.564   6.801  0.0330 -0.6804  0.2387
 9954SOL    HW231313   1.147   0.592   6.919 -0.9997  0.3043 -0.7767
 9955SOL     OW31314   5.547   6.153   0.458 -0.0431  0.3363 -0.1627
 9955SOL    HW131315   5.584   6.065   0.462  1.0535  0.8016  0.2872
 9955SOL    HW231316   5.569   6.184   0.370  1.8330  1.0841  0.5156
 9956SOL     OW31317   1.246   6.241   6.145  0.8361 -0.1287 -0.4403
 9956SOL    HW131318   1.199   6.162   6.119  3.5929 -2.1820  0.3371
 9956SOL    HW231319   1.196   6.313   6.107 -2.3822 -2.1247 -0.3235
 9957SOL     OW31320   5.784   1.018   2.850 -0.8209  0.1363  0.0121
 9957SOL    HW131321   5.722   0.953   2.817 -0.4419 -0.4234  0.3625
 9957SOL    HW231322   5.811   0.983   2.935 -0.5556  0.7264  0.1748
 9958SOL     OW31323   5.944   2.174   6.396  0.0857 -0.6203  0.5955
 9958SOL    HW131324   5.875   2.147   6.458 -0.7890  0.0479 -0.0761
 9958SOL    HW231325   5.969   2.092   6.353 -1.9265 -0.5935 -0.7861
 9959SOL     OW31326   1.978   1.358   2.498  0.3806  0.4354 -0.1319
 9959SOL    HW131327   2.034   1.297   2.546 -0.4185 -0.7116 -0.6285
 9959SOL    HW231328   1.896   1.358   2.547  0.4336  1.2743 -0.0292
 9960SOL     OW31329   4.511   3.174   2.550 -0.1668  0.1199  0.7438
 9960SOL    HW131330   4.602   3.156   2.526  0.2884 -0.8191  2.9269
 9960SOL    HW231331   4.460   3.120   2.490  0.7165  0.2816 -0.1970
 9961SOL     OW31332   2.000   4.877   6.614  0.5067  0.4441 -0.2573
 9961SOL    HW131333   1.951   4.799   6.638  1.0137  0.0572 -0.4699
 9961SOL    HW231334   2.018   4.921   6.697  1.4368 -0.3938  0.0008
 9962SOL     OW31335   4.309   6.569   6.000  0.0238 -0.3036 -0.2158
 9962SOL    HW131336   4.401   6.577   5.976  0.1469 -0.5244  0.1683
 9962SOL    HW231337   4.270   6.653   5.974 -0.1415 -0.9919 -2.3558
 9963SOL     OW31338   4.536   1.743   6.662  0.0530 -0.4311  0.6373
 9963SOL    HW131339   4.480   1.729   6.738 -0.0837 -2.0895  0.2683
 9963SOL    HW231340   4.476   1.738   6.587  0.4494 -0.5638  0.3269
 9964SOL     OW31341   2.553   2.800   7.057  0.0028  0.2844  0.4627
 9964SOL    HW131342   2.469   2.755   7.065  1.0816 -2.2179 -1.1041
 9964SOL    HW231343   2.616   2.730   7.042  2.2466  2.1643  0.6227
 9965SOL     OW31344   2.253   4.801   5.393 -0.1140  0.0249  0.1569
 9965SOL    HW131345   2.271   4.719   5.347  0.2611 -1.0127  2.0498
 9965SOL    HW231346   2.335   4.849   5.391  0.0123 -0.1930  0.1133
 9966SOL     OW31347   2.783   2.374   5.784 -0.3412 -0.3828  0.4811
 9966SOL    HW131348   2.769   2.437   5.855 -0.5701 -0.9666  0.9546
 9966SOL    HW231349   2.696   2.340   5.764 -0.1245 -1.1032  0.7438
 9967SOL     OW31350   0.618   6.281   1.564  0.5641  0.6769  0.5675
 9967SOL    HW131351   0.607   6.338   1.488 -1.3815 -0.2718  0.0496
 9967SOL    HW231352   0.646   6.338   1.634  0.1768  1.9872 -0.3138
 9968SOL     OW31353   2.471   6.986   4.271  0.1185  0.6165 -0.3128
 9968SOL    HW131354   2.476   7.038   4.351  0.4819  0.9471 -0.5475
 9968SOL    HW231355   2.517   7.038   4.206 -0.0411  0.2764 -0.7004
 9969SOL     OW31356   2.095   2.386   3.018  0.9754  0.5792  0.2154
 9969SOL    HW131357   2.065   2.415   3.104 -1.0261  0.5397 -0.4236
 9969SOL    HW231358   2.137   2.302   3.034 -2.3458 -1.1277  0.8161
 9970SOL     OW31359   2.037   3.218   6.548 -0.1237  0.0515 -0.0963
 9970SOL    HW131360   1.954   3.258   6.572 -0.0954  0.6050 -0.8818
 9970SOL    HW231361   2.037   3.134   6.594 -0.3303  0.7938  1.3077
 9971SOL     OW31362   4.542   4.233   3.519 -0.6831  0.1258 -0.7566
 9971SOL    HW131363   4.527   4.156   3.575 -0.2630  0.1153 -0.6610
 9971SOL    HW231364   4.572   4.196   3.436 -0.4605  0.1888 -0.7036
 9972SOL     OW31365   2.118   3.847   4.198 -0.3569 -0.1074 -0.4033
 9972SOL    HW131366   2.100   3.903   4.123  0.4847  0.6541 -0.0595
 9972SOL    HW231367   2.214   3.845   4.204 -0.3646 -1.6743 -0.4611
 9973SOL     OW31368   3.413   6.890   5.798  0.0568  0.5636 -0.6114
 9973SOL    HW131369   3.424   6.985   5.806 -1.1216  0.7016 -0.5226
 9973SOL    HW231370   3.328   6.879   5.755  0.0610 -0.4530 -0.3747
 9974SOL     OW31371   4.145   7.007   3.461  0.5855 -0.0905 -0.4626
 9974SOL    HW131372   4.086   7.048   3.398 -0.2145 -0.4562  0.0312
 9974SOL    HW231373   4.126   6.914   3.455  1.0466 -0.2062 -0.2185
 9975SOL     OW31374   1.484   0.662   0.857  0.3538  0.2135  0.1911
 9975SOL    HW131375   1.469   0.645   0.764  0.1041  0.0622  0.2580
 9975SOL    HW231376   1.473   0.757   0.866  0.3947  0.2303  0.0644
 9976SOL     OW31377   3.957   4.582   1.863  0.8470  0.1830 -0.3212
 9976SOL    HW131378   3.932   4.496   1.831 -2.8202  0.9984 -0.0340
 9976SOL    HW231379   4.003   4.623   1.789  0.9996 -1.3044 -1.0930
 9977SOL     OW31380   3.092   3.232   4.173 -0.1479 -0.3594  0.8015
 9977SOL    HW131381   3.146   3.262   4.101  0.0660 -0.1479  1.0489
 9977SOL    HW231382   3.025   3.178   4.132  0.4405 -0.8900  0.5284
 9978SOL     OW31383   4.120   4.172   7.036 -0.2867 -0.2557  0.2038
 9978SOL    HW131384   4.175   4.241   7.074  1.9685 -3.0867  2.5674
 9978SOL    HW231385   4.159   4.156   6.950 -1.0687  1.5360 -0.5406
 9979SOL     OW31386   5.729   6.129   2.299  0.6368 -0.0689  0.1643
 9979SOL    HW131387   5.733   6.116   2.393 -1.5200  1.0414  0.4839
 9979SOL    HW231388   5.739   6.042   2.261  1.6970 -0.5012  1.3868
 9980SOL     OW31389   4.493   1.771   1.484 -0.7476  0.0903 -0.3404
 9980SOL    HW131390   4.510   1.749   1.575  0.4484  0.3327 -0.4895
 9980SOL    HW231391   4.423   1.836   1.487 -0.8208 -0.0186  0.3840
 9981SOL     OW31392   1.449   2.269   6.734  0.1987  0.0183 -0.4737
 9981SOL    HW131393   1.409   2.192   6.694 -0.5333  0.6846 -1.0503
 9981SOL    HW231394   1.375   2.321   6.767  0.6552  0.6332 -0.3929
 9982SOL     OW31395   2.926   2.143   2.500  0.0162 -0.0493  0.4261
 9982SOL    HW131396   2.988   2.200   2.546  1.2309  2.0724 -3.3688
 9982SOL    HW231397   2.974   2.061   2.487  0.3750  0.0324  1.1783
 9983SOL     OW31398   0.131   4.936   1.859 -0.2502  0.0974  0.4995
 9983SOL    HW131399   0.112   4.936   1.765 -2.5449  0.9684  0.8903
 9983SOL    HW231400   0.118   4.845   1.885 -2.3740  0.3087  0.3890
 9984SOL     OW31401   2.653   6.741   5.372 -0.1112 -0.3058 -0.1065
 9984SOL    HW131402   2.584   6.801   5.403 -0.0353 -1.2022  1.9474
 9984SOL    HW231403   2.724   6.799   5.345 -0.0523  0.5814  1.8049
 9985SOL     OW31404   6.780   3.647   0.822  0.6422 -0.4212 -0.3649
 9985SOL    HW131405   6.837   3.617   0.751  0.2918  0.3509 -0.9809
 9985SOL    HW231406   6.839   3.691   0.883  0.9961 -1.3739  0.0085
 9986SOL     OW31407   1.960   3.843   1.001 -0.0833 -0.0654 -0.0811
 9986SOL    HW131408   1.939   3.757   0.966 -0.5557 -0.7171  1.7252
 9986SOL    HW231409   1.896   3.902   0.961  0.0894 -0.5690 -1.1361
 9987SOL     OW31410   3.497   2.780   0.665 -0.4204  0.5663  0.2054
 9987SOL    HW131411   3.566   2.827   0.617 -0.8428  1.4153  0.4143
 9987SOL    HW231412   3.423   2.777   0.604  0.4169 -2.2109 -0.8538
 9988SOL     OW31413   7.107   1.031   2.288 -0.2928  0.1441  0.3393
 9988SOL    HW131414   7.109   1.050   2.195  0.4628  1.6534  0.6278
 9988SOL    HW231415   7.162   0.954   2.298  2.2872  1.7935 -0.1446
 9989SOL     OW31416   3.904   0.164   2.100 -0.0361 -0.0643  0.0030
 9989SOL    HW131417   3.892   0.117   2.018  1.1692  1.4556 -1.1185
 9989SOL    HW231418   3.953   0.104   2.156 -0.3503 -0.9007 -0.6058
 9990SOL     OW31419   6.497   3.000   2.171  0.0653  0.0660  0.0466
 9990SOL    HW131420   6.579   2.965   2.206  1.1400  0.2644 -2.0826
 9990SOL    HW231421   6.430   2.939   2.202  0.8300  0.3760  2.5758
 9991SOL     OW31422   3.326   4.321   0.817  0.6492  0.4425  0.3382
 9991SOL    HW131423   3.288   4.361   0.896 -1.0834 -1.0062  0.3005
 9991SOL    HW231424   3.401   4.272   0.850  0.7194  0.8963  0.8873
 9992SOL     OW31425   3.300   6.518   4.820  0.2548 -0.0927 -0.2586
 9992SOL    HW131426   3.236   6.535   4.888 -0.8555 -1.7352 -0.8277
 9992SOL    HW231427   3.385   6.527   4.863 -0.3769  0.6926  0.8611
 9993SOL     OW31428   3.592   6.786   3.764  0.3887 -0.3498 -0.2801
 9993SOL    HW131429   3.504   6.775   3.800  1.4648 -2.2979  2.0495
 9993SOL    HW231430   3.621   6.697   3.744  2.6157 -0.0458  1.1641
 9994SOL     OW31431   1.856   5.506   3.978 -0.6366  0.3434  0.0321
 9994SOL    HW131432   1.857   5.601   3.974 -0.1805  0.3094 -0.9307
 9994SOL    HW231433   1.946   5.482   4.000 -0.3003  0.0969 -1.4666
 9995SOL     OW31434   6.475   1.625   0.255 -0.3223 -0.3383  0.3433
 9995SOL    HW131435   6.529   1.668   0.188  0.2864  0.1520  1.1314
 9995SOL    HW231436   6.535   1.612   0.329 -0.2522 -3.3039 -0.1268
 9996SOL     OW31437   6.273   5.860   2.960 -0.6599 -0.1375  0.4348
 9996SOL    HW131438   6.326   5.857   3.039 -1.3243 -0.4215  0.8853
 9996SOL    HW231439   6.205   5.925   2.978 -1.8663 -1.4531  0.8076
 9997SOL     OW31440   3.801   2.250   1.867  0.2385  0.4223 -0.0051
 9997SOL    HW131441   3.824   2.158   1.880  0.0633  0.6140  1.9034
 9997SOL    HW231442   3.706   2.253   1.878  0.2004  0.7807 -0.4184
 9998SOL     OW31443   6.892   0.661   6.758 -0.5326 -0.1950 -0.0631
 9998SOL    HW131444   6.814   0.607   6.770 -1.1820  0.5262 -0.8840
 9998SOL    HW231445   6.931   0.629   6.676  0.1905 -0.7308  0.4817
 9999SOL     OW31446   0.139   3.849   2.100  0.4336 -0.1169  0.1192
 9999SOL    HW131447   0.127   3.803   2.017  1.4303  1.3061 -0.8603
 9999SOL    HW231448   0.092   3.796   2.164 -0.4144 -1.2177 -1.3602
10000SOL     OW31449   5.239   1.425   3.897  0.3603  0.2147 -0.3333
10000SOL    HW131450   5.210   1.351   3.950 -1.8741  0.0247 -1.7047
10000SOL    HW231451   5.268   1.385   3.815  0.5437  0.7705 -0.5420
10001SOL     OW31452   0.872   7.078   1.949  0.1778  0.1836  0.0080
10001SOL    HW131453   0.889   7.134   2.025 -0.4102 -1.1260  1.1411
10001SOL    HW231454   0.901   7.130   1.874  2.0204  1.0241  1.2172
10002SOL     OW31455   6.833   1.070   6.397 -0.2692 -0.0165 -0.7493
10002SOL    HW131456   6.791   1.036   6.477 -0.6210  0.3747 -0.7618
10002SOL    HW231457   6.913   1.111   6.428  0.5055 -1.4198 -0.8072
10003SOL     OW31458   7.002   3.362   6.264 -0.0363  0.1624  0.2421
10003SOL    HW131459   6.973   3.451   6.247 -0.3721  0.0894  0.4108
10003SOL    HW231460   7.029   3.362   6.356 -0.7770 -0.0958  0.4681
10004SOL     OW31461   6.498   3.588   2.141  0.4094 -0.7836  0.2439
10004SOL    HW131462   6.468   3.666   2.093 -0.6804 -1.5313 -0.3427
10004SOL    HW231463   6.527   3.528   2.072  2.0909 -0.5809  0.7396
10005SOL     OW31464   1.084   5.952   3.226 -0.3444 -0.4420 -0.4329
10005SOL    HW131465   1.091   6.032   3.174 -1.9327  0.2534  0.3630
10005SOL    HW231466   1.169   5.946   3.271 -0.4517  1.2021  0.0509
10006SOL     OW31467   2.269   0.832   2.392  0.0069 -0.2051  0.8253
10006SOL    HW131468   2.219   0.760   2.354 -0.7259  0.2027  1.0059
10006SOL    HW231469   2.208   0.906   2.393  1.5533  1.2741 -1.9766
10007SOL     OW31470   2.807   3.803   5.454 -0.4379 -0.9137 -0.6514
10007SOL    HW131471   2.811   3.834   5.363  0.2650 -0.1650 -0.3735
10007SOL    HW231472   2.891   3.828   5.492 -0.5789 -1.5593  0.1076
10008SOL     OW31473   6.431   6.655   4.984  0.1965 -0.2202 -0.0400
10008SOL    HW131474   6.494   6.681   4.916  0.7891  0.2871  0.6850
10008SOL    HW231475   6.458   6.567   5.008 -0.0043 -0.3953 -0.4527
10009SOL     OW31476   0.850   3.673   6.303  0.4985  0.2371 -0.9561
10009SOL    HW131477   0.927   3.622   6.328 -0.2016 -0.5641 -0.3726
10009SOL    HW231478   0.829   3.643   6.215 -0.8550 -1.7321 -0.0394
10010SOL     OW31479   4.227   3.886   5.457 -0.1645 -0.2025 -0.4272
10010SOL    HW131480   4.247   3.832   5.533  1.2266  1.7851  0.6901
10010SOL    HW231481   4.139   3.920   5.473  0.1225  0.2050  0.3227
10011SOL     OW31482   4.419   4.638   4.889 -0.2611 -0.3357  0.0539
10011SOL    HW131483   4.416   4.727   4.923  2.1086  0.0598 -0.5977
10011SOL    HW231484   4.487   4.595   4.940 -0.9248 -1.6029 -0.0777
10012SOL     OW31485   6.196   1.698   1.552  0.0203 -0.1938  0.0923
10012SOL    HW131486   6.212   1.790   1.535 -0.6761 -0.3020 -1.4055
10012SOL    HW231487   6.247   1.652   1.485  1.8976 -1.0359  1.9816
10013SOL     OW31488   0.261   4.474   6.930  0.2121  0.0597  0.5511
10013SOL    HW131489   0.191   4.525   6.970 -0.2498 -1.2754  1.5363
10013SOL    HW231490   0.217   4.420   6.864  0.2020 -1.0739  1.4442
10014SOL     OW31491   2.589   1.050   2.926  0.2530 -0.2197 -0.4381
10014SOL    HW131492   2.608   0.966   2.884  4.7958  0.8200 -0.9363
10014SOL    HW231493   2.596   1.032   3.020  0.4766 -0.5259 -0.5126
10015SOL     OW31494   2.949   6.245   3.535  0.0726  0.3190 -0.1605
10015SOL    HW131495   2.959   6.160   3.492  0.2453  0.9188 -1.3568
10015SOL    HW231496   3.022   6.249   3.597  0.9694  0.1941 -1.1717
10016SOL     OW31497   6.710   1.036   2.269 -0.5386  0.1861 -0.3270
10016SOL    HW131498   6.790   0.987   2.251 -0.1917 -0.1916  1.8463
10016SOL    HW231499   6.643   0.995   2.214  0.7065  0.4088 -2.0601
10017SOL     OW31500   1.564   2.261   4.422  0.0673  0.5212  0.0686
10017SOL    HW131501   1.536   2.353   4.426 -1.4947  0.0605  0.9004
10017SOL    HW231502   1.507   2.217   4.485  1.2204 -0.9256  0.1394
10018SOL     OW31503   2.461   3.704   5.901 -0.1444  0.0078  0.1118
10018SOL    HW131504   2.488   3.644   5.831  1.3334  0.1058  0.5494
10018SOL    HW231505   2.366   3.708   5.894 -0.0304  0.1401 -1.9849
10019SOL     OW31506   6.729   5.540   5.453 -0.3698  0.2071  0.5464
10019SOL    HW131507   6.750   5.630   5.478 -1.1947  0.8615 -0.9546
10019SOL    HW231508   6.710   5.496   5.536  1.2280  1.0632  1.4244
10020SOL     OW31509   7.104   4.450   4.917 -0.1150 -0.2107 -0.5338
10020SOL    HW131510   7.066   4.460   4.830 -0.4682 -0.0197 -0.3587
10020SOL    HW231511   7.104   4.356   4.933  0.1606 -0.2643 -0.8331
10021SOL     OW31512   4.350   0.899   3.115  0.5141 -0.3821 -0.0757
10021SOL    HW131513   4.390   0.904   3.201  0.5947 -0.2537 -0.1210
10021SOL    HW231514   4.411   0.943   3.056 -0.7211  1.8888  0.2113
10022SOL     OW31515   4.044   5.491   1.062 -0.1115  0.1702  0.6868
10022SOL    HW131516   4.044   5.586   1.069  2.7252  0.1671  2.0488
10022SOL    HW231517   4.112   5.472   0.997 -1.5775 -0.9565 -0.6066
10023SOL     OW31518   2.823   0.571   3.431  0.0979  0.3585 -0.3062
10023SOL    HW131519   2.791   0.516   3.502  2.2464  0.8547  1.1446
10023SOL    HW231520   2.760   0.642   3.424 -1.5518 -1.0747 -0.7416
10024SOL     OW31521   6.499   5.189   2.212 -0.2514  0.4193 -0.1743
10024SOL    HW131522   6.451   5.248   2.270  0.5570  0.4227  0.5122
10024SOL    HW231523   6.518   5.241   2.134 -1.7693  0.2651 -0.6729
10025SOL     OW31524   1.324   1.261   2.267  0.9446  0.3217  0.0229
10025SOL    HW131525   1.297   1.332   2.325  1.2412  1.2080 -0.9168
10025SOL    HW231526   1.380   1.302   2.202  2.6871 -1.0691  0.5385
10026SOL     OW31527   1.456   0.390   5.966 -0.3695 -0.0408 -0.4085
10026SOL    HW131528   1.470   0.341   5.886 -0.2622  0.6338 -0.8121
10026SOL    HW231529   1.477   0.481   5.943 -2.7268  0.5968 -0.3362
10027SOL     OW31530   1.400   1.191   6.422  0.3845  0.4685 -0.1515
10027SOL    HW131531   1.456   1.208   6.346  0.2999  0.2522 -0.2664
10027SOL    HW231532   1.326   1.141   6.386 -0.6549  2.0299 -0.2740
10028SOL     OW31533   5.444   0.006   5.674  0.0818  0.6509  0.4950
10028SOL    HW131534   5.531   0.004   5.714  0.0593  1.8192  0.6302
10028SOL    HW231535   5.453   0.067   5.601  0.1737 -1.5456 -1.4590
10029SOL     OW31536   0.669   6.029   4.475 -0.0310  0.6412  0.1121
10029SOL    HW131537   0.642   6.038   4.384  0.6738  0.8228 -0.0869
10029SOL    HW231538   0.652   6.115   4.514  1.5030  1.1945 -0.3646
10030SOL     OW31539   3.638   6.089   7.055  0.6245  0.8816  0.2065
10030SOL    HW131540   3.633   6.036   7.135 -0.5984  0.3993 -0.1681
10030SOL    HW231541   3.703   6.044   7.001 -0.4991 -0.3506 -0.1615
10031SOL     OW31542   6.865   1.040   5.626 -0.3064 -0.7948 -0.1872
10031SOL    HW131543   6.794   1.004   5.678 -0.8670  0.6347  0.0567
10031SOL    HW231544   6.869   0.982   5.549 -0.3764 -2.0829  0.7424
10032SOL     OW31545   6.716   6.619   1.404 -0.0277 -0.0546 -0.4255
10032SOL    HW131546   6.749   6.557   1.469 -0.7847  1.2464  1.2570
10032SOL    HW231547   6.638   6.657   1.444 -1.1093  0.0792 -2.5302
10033SOL     OW31548   3.584   0.401   0.529  0.0585 -0.4188  0.1893
10033SOL    HW131549   3.557   0.434   0.615 -0.5373 -0.4077  0.0005
10033SOL    HW231550   3.579   0.306   0.538 -1.2086 -0.3990 -0.2085
10034SOL     OW31551   3.522   4.129   1.524  0.0061  0.2979  0.0387
10034SOL    HW131552   3.484   4.214   1.544 -2.3788 -0.5179 -0.6338
10034SOL    HW231553   3.614   4.138   1.546 -0.5046  2.4995  1.6348
10035SOL     OW31554   1.757   2.796   1.061  0.1233 -0.6433  0.3357
10035SOL    HW131555   1.676   2.796   1.112  0.5884  1.4030  1.1676
10035SOL    HW231556   1.802   2.716   1.088  0.2371  0.2279  2.9932
10036SOL     OW31557   4.840   3.144   2.690  0.0118  0.1823 -0.0656
10036SOL    HW131558   4.768   3.141   2.753 -2.3318 -1.3039 -2.5891
10036SOL    HW231559   4.797   3.164   2.606  2.6309 -0.2354 -1.5979
10037SOL     OW31560   7.141   2.229   4.845  0.3207  0.3591 -0.4339
10037SOL    HW131561   7.205   2.264   4.907  0.2257  0.5351 -0.4342
10037SOL    HW231562   7.177   2.146   4.817  0.2418  0.1550  0.0583
10038SOL     OW31563   3.132   5.872   3.018  0.1497  0.5221 -0.0981
10038SOL    HW131564   3.106   5.917   3.098  1.5099 -1.7814  1.7340
10038SOL    HW231565   3.145   5.781   3.043 -0.4912 -0.5695 -3.2130
10039SOL     OW31566   2.153   2.715   5.928 -0.3778  0.2231 -0.0717
10039SOL    HW131567   2.201   2.644   5.886  1.2290  1.5100 -0.5385
10039SOL    HW231568   2.119   2.767   5.856  0.3005  1.0869  0.2036
10040SOL     OW31569   3.422   5.074   1.214 -0.6824 -0.0623  0.2790
10040SOL    HW131570   3.483   5.056   1.142 -0.0494  0.2423  0.7304
10040SOL    HW231571   3.436   5.002   1.276 -0.1919  0.4422  0.7608
10041SOL     OW31572   3.585   2.324   0.179  0.0208  0.2086  0.2330
10041SOL    HW131573   3.561   2.231   0.171  0.9926 -0.0797  0.5210
10041SOL    HW231574   3.594   2.354   0.088 -0.9093  0.1986  0.1273
10042SOL     OW31575   5.514   4.019   4.450  0.1636  0.3135  0.0138
10042SOL    HW131576   5.431   4.058   4.423 -0.4721  0.2049  1.6688
10042SOL    HW231577   5.531   3.949   4.387 -3.2467 -2.5775  1.9288
10043SOL     OW31578   1.742   6.073   6.819 -0.3465 -0.1935 -0.2366
10043SOL    HW131579   1.683   6.025   6.761 -0.3763  0.8668 -1.1288
10043SOL    HW231580   1.830   6.054   6.785 -0.2509 -0.8063  0.3417
10044SOL     OW31581   3.495   1.717   2.560  0.0037  0.1925 -0.3975
10044SOL    HW131582   3.485   1.712   2.465 -0.4192  1.9708 -0.4703
10044SOL    HW231583   3.572   1.772   2.574  1.4756 -1.8869  0.3184
10045SOL     OW31584   4.834   2.511   5.313 -0.2940  0.6188 -0.0582
10045SOL    HW131585   4.920   2.537   5.344  1.1143  0.2184 -3.1965
10045SOL    HW231586   4.795   2.591   5.278 -0.7328  0.5939  0.3689
10046SOL     OW31587   6.330   6.923   4.984 -0.3043  0.5190  0.5807
10046SOL    HW131588   6.250   6.916   5.037 -0.0876  0.8896  0.9625
10046SOL    HW231589   6.359   6.832   4.972 -0.4776  0.4199  0.9113
10047SOL     OW31590   0.323   4.529   2.861 -0.4521  0.5398 -0.1327
10047SOL    HW131591   0.407   4.533   2.906 -0.4419  2.8509 -0.2379
10047SOL    HW231592   0.337   4.468   2.789  1.3055  1.2944 -0.4730
10048SOL     OW31593   0.079   6.065   3.853  0.0436  0.3832  0.4031
10048SOL    HW131594   0.054   6.121   3.926 -2.5309 -0.3072  0.1446
10048SOL    HW231595   0.023   5.988   3.861  1.2490 -0.7128 -1.0700
10049SOL     OW31596   3.830   5.165   6.373  0.0840  0.2297 -0.2872
10049SOL    HW131597   3.900   5.104   6.354  0.9750  0.8300  0.9059
10049SOL    HW231598   3.795   5.190   6.288  1.7781  0.4476 -0.9480
10050SOL     OW31599   6.527   0.396   5.460 -0.5278 -0.2899  0.2075
10050SOL    HW131600   6.622   0.399   5.454 -0.5217 -0.0370  0.3883
10050SOL    HW231601   6.503   0.310   5.428 -0.3030 -0.0239 -0.7036
10051SOL     OW31602   3.681   0.941   2.124 -0.4491  0.3428  0.4893
10051SOL    HW131603   3.734   1.006   2.170 -0.5020  1.0494 -0.4260
10051SOL    HW231604   3.627   0.991   2.064 -2.0451 -0.3930  1.2681
10052SOL     OW31605   6.235   2.469   3.541 -0.2424  0.4339 -0.1270
10052SOL    HW131606   6.301   2.432   3.483 -1.5028 -1.4808 -0.4317
10052SOL    HW231607   6.249   2.424   3.625 -1.1746 -0.0545 -0.2171
10053SOL     OW31608   5.925   3.671   4.624 -0.2839  0.4547  0.0157
10053SOL    HW131609   5.950   3.748   4.573 -0.9744  0.0837 -0.9328
10053SOL    HW231610   5.955   3.596   4.572  1.2489  0.0625  1.3915
10054SOL     OW31611   2.856   0.944   6.908 -0.3854  0.2920 -0.3082
10054SOL    HW131612   2.824   1.029   6.939 -0.6898  0.6371 -1.5238
10054SOL    HW231613   2.874   0.895   6.988 -1.6193  0.9688  0.4183
10055SOL     OW31614   1.868   6.397   1.746 -0.0753  0.0852  0.1449
10055SOL    HW131615   1.782   6.404   1.703 -0.8752 -0.0141  1.6430
10055SOL    HW231616   1.880   6.303   1.760 -0.3846  0.1856  1.1698
10056SOL     OW31617   3.435   3.280   4.962 -0.1107  0.3318  0.5568
10056SOL    HW131618   3.347   3.254   4.937 -0.0762  0.2911  0.4775
10056SOL    HW231619   3.471   3.203   5.006  0.8384 -0.6477 -1.7462
10057SOL     OW31620   2.946   4.554   3.101 -0.1588  0.0826 -0.5295
10057SOL    HW131621   2.936   4.646   3.077 -0.3504 -0.0643 -1.0370
10057SOL    HW231622   3.025   4.525   3.055  1.2143  0.5594  1.4071
10058SOL     OW31623   1.826   4.760   3.207 -0.6252 -0.4976 -0.2317
10058SOL    HW131624   1.802   4.725   3.293  1.1944  1.3002  1.1165
10058SOL    HW231625   1.765   4.833   3.193  0.0030  0.1445  0.2749
10059SOL     OW31626   2.690   3.483   6.336  0.0125  0.0766 -0.3887
10059SOL    HW131627   2.597   3.481   6.359 -0.3094  2.0924 -1.2838
10059SOL    HW231628   2.693   3.530   6.252  1.7320 -1.0467 -1.0102
10060SOL     OW31629   4.281   2.206   1.399  0.1544  0.4368 -0.1909
10060SOL    HW131630   4.319   2.239   1.480 -0.4343  0.1745  0.2022
10060SOL    HW231631   4.187   2.217   1.410  0.0162 -0.3205 -0.5145
10061SOL     OW31632   1.186   5.761   5.614  0.4001  0.4350  0.0953
10061SOL    HW131633   1.259   5.818   5.591 -0.7028  2.3066  1.0257
10061SOL    HW231634   1.219   5.709   5.688  0.8301  1.2178  0.4649
10062SOL     OW31635   6.852   5.740   6.172  0.6178  0.6395 -0.4681
10062SOL    HW131636   6.945   5.757   6.186  0.8931 -0.6950 -0.4718
10062SOL    HW231637   6.812   5.826   6.163  1.7248  1.2554  0.3313
10063SOL     OW31638   0.635   1.571   2.409  0.0492 -0.3503  0.5127
10063SOL    HW131639   0.588   1.615   2.338  2.6308 -0.1134 -1.2202
10063SOL    HW231640   0.584   1.492   2.427 -1.4533  0.3206 -0.5687
10064SOL     OW31641   2.534   0.911   4.559 -0.1639 -0.3222  0.3318
10064SOL    HW131642   2.461   0.972   4.566 -1.2704 -1.7218  1.8376
10064SOL    HW231643   2.518   0.846   4.627  1.3957 -1.8440 -0.6521
10065SOL     OW31644   5.089   1.417   5.655 -0.0716 -0.2102 -0.3641
10065SOL    HW131645   5.137   1.350   5.703 -0.3116  0.0884  0.2952
10065SOL    HW231646   4.998   1.387   5.655 -0.3094  0.4852  0.5925
10066SOL     OW31647   5.959   4.747   1.521  0.1601 -0.3242  0.1465
10066SOL    HW131648   6.015   4.800   1.466  0.7222 -3.0069 -2.0881
10066SOL    HW231649   5.878   4.797   1.529  1.8407  2.4053  1.2154
10067SOL     OW31650   2.161   3.654   7.020 -0.5243  0.1498 -0.1515
10067SOL    HW131651   2.213   3.581   6.984  0.8256  1.8061 -1.7861
10067SOL    HW231652   2.096   3.672   6.952  0.4276  1.6839 -0.7153
10068SOL     OW31653   0.983   0.534   6.459  0.0498 -0.0148 -0.2849
10068SOL    HW131654   1.050   0.588   6.417  0.1177  0.3026  0.2227
10068SOL    HW231655   1.032   0.463   6.500 -0.0513 -0.5480 -1.0672
10069SOL     OW31656   5.402   4.878   3.196  0.6283  0.2115 -0.7635
10069SOL    HW131657   5.337   4.822   3.154 -0.7159  1.5196 -0.5170
10069SOL    HW231658   5.368   4.967   3.185  2.3169  0.9301 -0.4850
10070SOL     OW31659   3.429   4.362   1.650 -0.4036 -0.0928 -0.0850
10070SOL    HW131660   3.475   4.376   1.732  0.6446 -1.3721 -0.4299
10070SOL    HW231661   3.365   4.292   1.670 -1.0271  0.4766 -0.0481
10071SOL     OW31662   2.933   4.419   7.110  0.7084  0.1865  0.3007
10071SOL    HW131663   3.002   4.363   7.075 -0.3440 -1.1733  0.3076
10071SOL    HW231664   2.927   4.397   7.202  0.5890  0.6601  0.4128
10072SOL     OW31665   6.185   6.893   0.939  0.1334 -0.2057 -0.0454
10072SOL    HW131666   6.278   6.893   0.960  0.2860 -1.2828 -0.6257
10072SOL    HW231667   6.177   6.959   0.870  0.7259 -1.0164 -0.9290
10073SOL     OW31668   1.917   3.974   4.604 -0.1396  0.2667 -0.0333
10073SOL    HW131669   1.987   4.037   4.586  0.3568 -0.7830 -2.0930
10073SOL    HW231670   1.908   3.924   4.523 -1.4385 -1.4245  1.0766
10074SOL     OW31671   3.339   2.465   1.313  0.4018  0.6636  0.1231
10074SOL    HW131672   3.324   2.515   1.233  0.2201  0.8155  0.2504
10074SOL    HW231673   3.434   2.471   1.327  0.4815  0.3450 -0.2659
10075SOL     OW31674   0.404   6.666   3.882 -0.4657  0.1241 -0.3784
10075SOL    HW131675   0.473   6.729   3.858 -0.6517  0.7156  0.5842
10075SOL    HW231676   0.350   6.659   3.803  0.2539  0.2304 -0.8988
10076SOL     OW31677   6.463   6.959   3.435 -0.0392  0.0290 -0.1000
10076SOL    HW131678   6.486   6.952   3.342 -0.3798 -0.9974 -0.1210
10076SOL    HW231679   6.390   7.021   3.437 -1.5191 -1.6286 -0.8018
10077SOL     OW31680   4.506   4.199   6.799 -0.4793  0.4674 -0.3692
10077SOL    HW131681   4.474   4.225   6.885 -1.9220 -1.1098 -0.3656
10077SOL    HW231682   4.473   4.266   6.739 -0.3297  1.0269  0.1733
10078SOL     OW31683   1.833   4.897   0.723 -0.3009  0.3061 -0.0776
10078SOL    HW131684   1.763   4.838   0.749  0.4450 -1.0313 -0.9902
10078SOL    HW231685   1.808   4.927   0.635 -0.7545  1.5144  0.4393
10079SOL     OW31686   1.145   1.644   3.515  0.6094  0.4868 -0.6640
10079SOL    HW131687   1.134   1.654   3.610 -0.8990  0.7151 -0.8476
10079SOL    HW231688   1.199   1.719   3.490  0.0743  1.0624 -0.1402
10080SOL     OW31689   0.077   2.232   2.213 -0.5292 -0.4193  0.1010
10080SOL    HW131690   0.074   2.322   2.245 -2.6828 -0.2523 -0.4415
10080SOL    HW231691   0.166   2.203   2.233  0.3783  1.9670 -0.1445
10081SOL     OW31692   6.583   1.290   2.150  0.6643 -0.3919  0.2319
10081SOL    HW131693   6.609   1.217   2.206  1.3216 -0.7970 -0.5855
10081SOL    HW231694   6.498   1.263   2.114  0.9549 -0.8097 -0.1525
10082SOL     OW31695   0.656   4.485   1.167  0.3342  0.7379  0.2740
10082SOL    HW131696   0.615   4.442   1.092 -0.8653 -1.1515  1.9199
10082SOL    HW231697   0.584   4.524   1.216  0.9998  1.1804  0.9307
10083SOL     OW31698   1.068   2.119   6.056  0.1571  0.0526  0.2303
10083SOL    HW131699   1.057   2.138   5.963 -3.1238 -0.9655  0.2810
10083SOL    HW231700   1.063   2.205   6.098  2.7957  0.6544 -0.4884
10084SOL     OW31701   3.806   2.658   2.651 -0.2302  0.6345 -0.0289
10084SOL    HW131702   3.793   2.700   2.566  1.0910  0.3107 -0.4151
10084SOL    HW231703   3.741   2.588   2.654 -0.7396  1.0796 -0.4692
10085SOL     OW31704   3.458   5.867   5.683 -0.0626 -0.0511  0.5989
10085SOL    HW131705   3.437   5.792   5.626  0.6860  0.5238 -0.4551
10085SOL    HW231706   3.441   5.944   5.629 -0.9890  0.5662  1.7348
10086SOL     OW31707   4.577   2.783   0.217 -0.0584  0.1248 -0.0671
10086SOL    HW131708   4.517   2.847   0.179  0.1394  0.1545 -0.3329
10086SOL    HW231709   4.527   2.741   0.287  0.0685  1.1450  0.6627
10087SOL     OW31710   3.826   6.929   5.554 -0.2397  0.3727  0.0044
10087SOL    HW131711   3.763   6.859   5.571 -1.1244  0.9479 -0.7812
10087SOL    HW231712   3.814   6.990   5.627 -1.0897  0.8081 -0.4828
10088SOL     OW31713   4.503   6.427   7.009  0.0221 -0.0283  0.1563
10088SOL    HW131714   4.567   6.443   6.940  0.2921 -0.7019  0.2471
10088SOL    HW231715   4.489   6.513   7.049  0.1945  0.2854 -0.4463
10089SOL     OW31716   3.127   3.297   2.884 -0.1642  0.1231  0.2791
10089SOL    HW131717   3.145   3.287   2.790 -0.1473 -0.7903  0.3753
10089SOL    HW231718   3.167   3.220   2.925 -0.0562  0.5823  1.0552
10090SOL     OW31719   3.955   2.655   6.804  0.4352  0.3835 -0.6331
10090SOL    HW131720   3.866   2.623   6.812  0.5904  0.3843  1.6272
10090SOL    HW231721   3.987   2.619   6.721 -0.3919 -2.8196  0.3208
10091SOL     OW31722   3.106   1.144   0.940  0.3491  0.0842  0.0174
10091SOL    HW131723   3.160   1.071   0.910  1.2969  1.6894 -2.4768
10091SOL    HW231724   3.167   1.218   0.947 -0.7556  0.9001  1.5347
10092SOL     OW31725   0.349   2.275   2.193 -0.1829  0.0600 -0.2093
10092SOL    HW131726   0.403   2.199   2.171  0.2493  0.3341 -0.1238
10092SOL    HW231727   0.409   2.334   2.238 -0.8455 -0.1408  0.9856
10093SOL     OW31728   0.425   0.373   0.415  0.2779 -0.2917  0.3975
10093SOL    HW131729   0.386   0.433   0.480 -0.4247 -0.6482  0.3136
10093SOL    HW231730   0.437   0.427   0.337  0.2001 -0.1090  0.5109
10094SOL     OW31731   4.738   2.321   0.273 -0.2430 -0.1692  0.1684
10094SOL    HW131732   4.769   2.397   0.322 -1.5185  1.1394 -0.9620
10094SOL    HW231733   4.798   2.315   0.198  0.2912 -0.7360  0.6329
10095SOL     OW31734   6.413   6.608   2.738  0.7795  0.3265 -0.2595
10095SOL    HW131735   6.399   6.702   2.739  1.6485  0.4615  0.3579
10095SOL    HW231736   6.343   6.574   2.682 -0.6044  1.1662  0.8574
10096SOL     OW31737   0.163   0.696   1.937 -0.1967 -0.3033 -0.1579
10096SOL    HW131738   0.237   0.634   1.939  0.5031  0.5266  0.3062
10096SOL    HW231739   0.171   0.739   1.851  2.6435  2.9954  1.5094
10097SOL     OW31740   4.165   6.818   4.016 -0.0184 -0.0307  0.5215
10097SOL    HW131741   4.132   6.728   4.020 -0.1475 -0.1861 -1.9797
10097SOL    HW231742   4.089   6.872   4.039 -0.8200 -0.5269 -0.8054
10098SOL     OW31743   2.440   5.779   2.002 -0.8667 -0.3309 -0.2178
10098SOL    HW131744   2.360   5.818   2.037 -0.2634 -0.9421  2.0125
10098SOL    HW231745   2.461   5.833   1.926 -1.8963  1.5841  0.7614
10099SOL     OW31746   3.606   0.429   3.190 -0.3151  0.2503  0.4566
10099SOL    HW131747   3.650   0.345   3.173 -0.6149  0.5939 -2.4001
10099SOL    HW231748   3.645   0.459   3.272 -0.5090 -2.8391  1.8504
10100SOL     OW31749   7.120   1.514   5.911 -0.4344  0.0559 -0.0749
10100SOL    HW131750   7.029   1.542   5.899 -0.1006  1.5747  0.6659
10100SOL    HW231751   7.171   1.596   5.910  1.0861 -0.8392 -1.6409
10101SOL     OW31752   1.197   0.841   1.002 -0.0834 -0.6354  0.6252
10101SOL    HW131753   1.136   0.778   1.039  0.8264 -0.8354  1.8490
10101SOL    HW231754   1.261   0.788   0.954 -1.2090 -0.3847 -1.2616
10102SOL     OW31755   2.077   0.707   3.340 -0.2519 -0.9911  0.3018
10102SOL    HW131756   2.159   0.669   3.309  0.7955 -0.5490  2.3315
10102SOL    HW231757   2.042   0.642   3.401 -0.9025 -0.7470  0.1975
10103SOL     OW31758   1.221   5.777   1.262 -0.1488 -0.5442  0.3742
10103SOL    HW131759   1.302   5.750   1.218 -0.5228 -1.2666  0.1054
10103SOL    HW231760   1.180   5.694   1.288  0.7774 -0.1608  3.4386
10104SOL     OW31761   4.142   2.908   3.276 -0.4142 -0.5750 -0.3631
10104SOL    HW131762   4.082   2.967   3.323  0.0357 -0.8695  0.6032
10104SOL    HW231763   4.120   2.921   3.184 -0.0086  1.4677 -0.2233
10105SOL     OW31764   0.373   7.097   4.780  0.1710  0.0180 -0.3608
10105SOL    HW131765   0.392   7.147   4.701  0.0558  1.0230  0.2305
10105SOL    HW231766   0.419   7.015   4.768  0.5669  0.3569 -1.2492
10106SOL     OW31767   6.971   2.160   4.106  0.0886  0.2254  0.0055
10106SOL    HW131768   6.991   2.197   4.192 -0.5349  1.8801 -0.5201
10106SOL    HW231769   7.040   2.195   4.049  0.0572 -0.2457 -0.3222
10107SOL     OW31770   5.211   0.920   2.637 -0.0633 -0.0720 -0.2534
10107SOL    HW131771   5.174   1.008   2.631  1.5592  0.7984  1.4521
10107SOL    HW231772   5.306   0.933   2.638  0.2166 -1.5659  2.4438
10108SOL     OW31773   3.117   1.842   3.085  0.0427  0.0030  0.1842
10108SOL    HW131774   3.026   1.838   3.112 -0.2635 -1.5306 -0.8897
10108SOL    HW231775   3.117   1.900   3.008 -0.4320 -1.5657 -1.0590
10109SOL     OW31776   4.498   2.695   7.020 -0.4593 -0.2600 -0.1413
10109SOL    HW131777   4.526   2.622   7.075 -0.7795 -0.1344  0.1956
10109SOL    HW231778   4.532   2.773   7.065  2.0848 -0.2971 -1.7939
10110SOL     OW31779   3.845   4.855   3.986  0.1203 -0.2553 -0.1600
10110SOL    HW131780   3.818   4.915   3.916  1.4073 -0.2387 -0.6646
10110SOL    HW231781   3.805   4.771   3.961  2.0311 -0.7234 -1.9673
10111SOL     OW31782   1.691   5.219   2.845 -0.3771  0.5621  0.1275
10111SOL    HW131783   1.704   5.163   2.921  0.5998  1.8026  0.9118
10111SOL    HW231784   1.636   5.167   2.786  1.1886 -1.5548  0.4346
10112SOL     OW31785   4.915   2.702   5.676 -0.3114  0.9116  0.1273
10112SOL    HW131786   4.956   2.670   5.596 -1.7657 -4.3745  1.1135
10112SOL    HW231787   4.842   2.756   5.646 -0.6198 -0.6420 -2.1744
10113SOL     OW31788   1.596   6.362   1.933 -0.0150 -0.0081  0.0377
10113SOL    HW131789   1.550   6.300   1.877  0.9606  0.5935 -1.5105
10113SOL    HW231790   1.527   6.411   1.978 -0.7949 -2.2432  1.3984
10114SOL     OW31791   0.170   1.176   0.849  0.3258  0.5115  0.1428
10114SOL    HW131792   0.148   1.268   0.857 -1.1456  0.3290 -1.3448
10114SOL    HW231793   0.121   1.133   0.919  1.4298  0.8798  1.1780
10115SOL     OW31794   5.519   3.354   4.412 -0.5357 -0.1670 -0.1853
10115SOL    HW131795   5.463   3.428   4.437 -1.6359 -1.4859  1.4614
10115SOL    HW231796   5.466   3.277   4.432  0.6461 -1.4228 -1.7194
10116SOL     OW31797   0.019   4.913   3.111  0.0144 -0.1050  0.1671
10116SOL    HW131798  -0.016   4.857   3.180  1.0290  0.6027  1.2900
10116SOL    HW231799   0.079   4.857   3.062 -0.9866 -0.7113 -0.3827
10117SOL     OW31800   6.205   0.155   0.036 -0.1947  0.4689 -0.1585
10117SOL    HW131801   6.240   0.144   0.125  0.3807 -0.7549 -0.5140
10117SOL    HW231802   6.111   0.144   0.046  0.0561 -2.4281 -0.0316
10118SOL     OW31803   6.586   2.354   6.429  0.2102  0.4844  0.1255
10118SOL    HW131804   6.525   2.426   6.413 -1.3499 -0.6884  0.5224
10118SOL    HW231805   6.598   2.314   6.343  1.0142  1.1501 -0.0808
10119SOL     OW31806   0.892   4.984   5.383  0.4424  0.5891  0.2057
10119SOL    HW131807   0.873   4.949   5.470  0.4787  1.1331  0.4391
10119SOL    HW231808   0.899   5.079   5.397  0.1007  0.7146 -0.4515
10120SOL     OW31809   6.843   6.540   3.320  0.5244  0.7163  0.3849
10120SOL    HW131810   6.854   6.626   3.361 -1.5493  0.9011  0.6757
10120SOL    HW231811   6.820   6.559   3.229  0.7701  0.4310  0.2591
10121SOL     OW31812   7.141   1.377   3.180  0.3684 -0.5827  0.4835
10121SOL    HW131813   7.084   1.454   3.178  0.4435 -0.5305  0.2113
10121SOL    HW231814   7.215   1.402   3.125  1.5274  0.0207  2.2473
10122SOL     OW31815   6.072   3.958   4.363  0.8510 -0.3459 -0.1325
10122SOL    HW131816   6.009   3.983   4.295 -0.2601 -0.1275  0.9357
10122SOL    HW231817   6.141   4.025   4.357  2.1722 -1.8125 -2.7522
10123SOL     OW31818   1.697   1.379   2.801 -0.4875 -0.3236 -0.6580
10123SOL    HW131819   1.666   1.374   2.710  2.5830  0.7059 -1.8866
10123SOL    HW231820   1.720   1.288   2.824  1.0625 -0.2914 -1.8966
10124SOL     OW31821   6.120   0.132   0.364 -0.5988  0.3001 -0.1005
10124SOL    HW131822   6.092   0.085   0.442  0.2047 -2.8573 -1.5559
10124SOL    HW231823   6.045   0.185   0.339 -2.3774 -1.7670  0.5902
10125SOL     OW31824   1.947   2.471   5.838 -0.1824 -0.2812  0.0487
10125SOL    HW131825   1.901   2.394   5.804  0.1223 -1.1338  1.4883
10125SOL    HW231826   1.879   2.538   5.843 -0.2870 -0.1629 -1.9753
10126SOL     OW31827   4.654   2.704   6.790 -0.1799  0.2998 -0.7914
10126SOL    HW131828   4.581   2.693   6.851 -0.3030  0.7614 -0.8502
10126SOL    HW231829   4.727   2.658   6.831 -0.1465  0.9647 -0.0866
10127SOL     OW31830   5.308   2.303   0.524  0.0484  0.3496 -0.9844
10127SOL    HW131831   5.251   2.241   0.568  1.6128 -0.0025  0.6659
10127SOL    HW231832   5.397   2.273   0.545  0.8502  2.2608 -1.4173
10128SOL     OW31833   4.641   4.021   2.006  0.2222  0.5868  0.6225
10128SOL    HW131834   4.618   4.103   1.962  0.1065 -0.3121 -1.0672
10128SOL    HW231835   4.561   3.996   2.052  0.2419  1.3719  1.1073
10129SOL     OW31836   2.732   7.117   3.136  0.5258 -0.0694 -0.1867
10129SOL    HW131837   2.778   7.042   3.100  0.5132 -0.4311  0.5390
10129SOL    HW231838   2.702   7.166   3.059  2.7432  0.5886 -0.6910
10130SOL     OW31839   0.486   0.320   1.290 -0.0891  0.6519  0.2109
10130SOL    HW131840   0.540   0.399   1.292 -1.9634  2.0265 -0.5260
10130SOL    HW231841   0.427   0.334   1.216 -0.4323 -1.5022  0.0161
10131SOL     OW31842   4.963   4.258   0.126 -0.3149 -0.0652  0.0012
10131SOL    HW131843   4.880   4.227   0.161 -0.4571 -2.1116 -1.9439
10131SOL    HW231844   5.029   4.204   0.169 -0.1424  0.2682  0.1582
10132SOL     OW31845   1.038   3.904   3.357  0.6737 -0.4270  0.2279
10132SOL    HW131846   1.007   3.836   3.416  1.6539 -0.8138  0.3193
10132SOL    HW231847   1.004   3.879   3.271 -0.4126 -0.0805  0.5443
10133SOL     OW31848   1.653   0.792   6.108 -0.5903  0.2902  0.1246
10133SOL    HW131849   1.598   0.776   6.185  0.0261  0.1126  0.5393
10133SOL    HW231850   1.631   0.721   6.048  1.8709 -2.1281  1.7993
10134SOL     OW31851   6.123   5.400   5.737 -0.2246 -0.0710 -0.3680
10134SOL    HW131852   6.043   5.366   5.777  0.3550  0.7895  1.6363
10134SOL    HW231853   6.179   5.424   5.811  1.2713  0.7851 -1.7120
10135SOL     OW31854   5.388   3.233   6.616 -0.4237 -0.1203 -0.1986
10135SOL    HW131855   5.412   3.257   6.527  3.0149 -2.1940 -0.0207
10135SOL    HW231856   5.401   3.313   6.667  0.9131  0.2333 -1.0553
10136SOL     OW31857   7.030   3.340   5.995  0.0194 -0.4403 -0.4348
10136SOL    HW131858   7.098   3.279   5.965 -1.0006 -1.4987 -0.6995
10136SOL    HW231859   7.026   3.326   6.090 -0.0826 -0.6655 -0.4703
10137SOL     OW31860   5.526   0.559   2.774  0.1554 -0.1917  0.4161
10137SOL    HW131861   5.530   0.644   2.732  1.6727 -0.8650 -0.9213
10137SOL    HW231862   5.434   0.547   2.796 -0.3341  1.1164 -0.7881
10138SOL     OW31863   4.162   3.461   2.505 -0.1835 -0.2483 -0.0975
10138SOL    HW131864   4.103   3.404   2.455  0.4097 -0.9819  0.0248
10138SOL    HW231865   4.244   3.460   2.456  0.1615 -0.3547  0.4714
10139SOL     OW31866   5.548   1.554   1.827  0.3557  0.5726 -0.4404
10139SOL    HW131867   5.472   1.594   1.870 -0.9449 -1.7245 -0.4376
10139SOL    HW231868   5.623   1.590   1.873 -0.8682  0.5473  1.6950
10140SOL     OW31869   0.638   3.897   2.782 -0.4422  0.2686  0.2620
10140SOL    HW131870   0.629   3.814   2.829 -1.3192 -0.9479 -1.9445
10140SOL    HW231871   0.614   3.964   2.847  1.6568 -1.0154  2.5290
10141SOL     OW31872   7.065   6.646   1.509  0.2587  0.0686 -0.0427
10141SOL    HW131873   7.109   6.588   1.446  0.4714  0.0384  0.1307
10141SOL    HW231874   7.000   6.590   1.551 -0.1138  0.1731 -0.4675
10142SOL     OW31875   1.190   3.149   4.364  0.4402 -0.1033  0.0112
10142SOL    HW131876   1.242   3.080   4.405  1.3155  0.3541 -0.2875
10142SOL    HW231877   1.163   3.112   4.280  0.2963 -0.3395  0.1614
10143SOL     OW31878   1.128   0.329   3.227 -0.5026 -0.0547 -0.1076
10143SOL    HW131879   1.145   0.423   3.223 -0.3771 -0.1063 -0.9338
10143SOL    HW231880   1.085   0.308   3.143 -1.9180 -0.4611  0.6723
10144SOL     OW31881   5.807   6.181   2.850 -0.0645 -0.2546 -0.0922
10144SOL    HW131882   5.773   6.113   2.908  1.2094 -1.5083 -0.7290
10144SOL    HW231883   5.895   6.150   2.826  1.1007  2.2409  0.5876
10145SOL     OW31884   2.040   1.268   3.602  0.3561 -0.4376 -0.4435
10145SOL    HW131885   1.976   1.284   3.672  0.3250  1.5836 -0.8547
10145SOL    HW231886   1.988   1.269   3.522  0.9287  2.7401 -0.9317
10146SOL     OW31887   0.666   1.158   3.068  0.1548  0.7456  0.6644
10146SOL    HW131888   0.691   1.153   2.976  1.2033  0.1745  0.9589
10146SOL    HW231889   0.627   1.245   3.079 -0.9302  0.4273 -0.5339
10147SOL     OW31890   4.983   0.198   6.022  0.4555  0.0942  0.3300
10147SOL    HW131891   4.929   0.246   5.958 -1.9413 -3.7736 -0.8777
10147SOL    HW231892   4.924   0.180   6.095  2.2092  1.4949  2.2128
10148SOL     OW31893   0.911   2.592   3.165 -0.2278  0.3334 -0.7824
10148SOL    HW131894   0.921   2.671   3.111  1.2994  0.0346 -0.9955
10148SOL    HW231895   0.965   2.527   3.120  0.0611 -0.2796  0.4324
10149SOL     OW31896   1.351   0.783   0.145 -0.0309 -0.0599 -0.5702
10149SOL    HW131897   1.272   0.801   0.196  0.0055 -2.2493  0.3647
10149SOL    HW231898   1.379   0.869   0.112 -2.2306  0.8854 -0.1146
10150SOL     OW31899   0.362   1.750   4.018 -0.4746 -0.3889  0.3001
10150SOL    HW131900   0.398   1.663   4.000  1.9583  0.5012  0.4599
10150SOL    HW231901   0.403   1.777   4.100 -1.6686  0.6883  0.5826
10151SOL     OW31902   0.172   3.583   3.052 -0.0872 -0.0452  0.1583
10151SOL    HW131903   0.101   3.636   3.014 -0.8011 -1.4628 -0.5723
10151SOL    HW231904   0.140   3.561   3.140  0.6264  1.4666  0.8298
10152SOL     OW31905   6.639   0.064   2.002  0.0878  0.1352 -0.2393
10152SOL    HW131906   6.571   0.019   1.952 -1.2933  2.1543 -0.2927
10152SOL    HW231907   6.716   0.008   1.994 -1.0177 -1.2349 -1.8612
10153SOL     OW31908   4.484   0.193   4.078  0.3175  0.4462  0.1958
10153SOL    HW131909   4.508   0.212   3.987  0.6917 -1.9070 -0.2519
10153SOL    HW231910   4.412   0.253   4.096 -0.6637  0.0712 -2.1031
10154SOL     OW31911   5.958   4.041   1.669  0.0628 -0.2287  0.0796
10154SOL    HW131912   5.958   4.136   1.657 -2.4002 -0.2277 -0.2726
10154SOL    HW231913   5.917   4.028   1.755  0.6156 -0.9955  0.2385
10155SOL     OW31914   0.108   5.143   0.636  0.0138 -0.4367 -0.1474
10155SOL    HW131915   0.084   5.217   0.580 -1.7681 -0.8676 -0.0083
10155SOL    HW231916   0.069   5.164   0.721  2.4936  0.1053  0.9393
10156SOL     OW31917   2.654   1.696   1.408  0.0403 -0.4512 -0.4041
10156SOL    HW131918   2.638   1.614   1.361  2.3059 -0.7351 -0.7901
10156SOL    HW231919   2.609   1.685   1.492 -1.4960 -1.1860 -1.2834
10157SOL     OW31920   0.754   3.278   6.297  0.1604 -0.4971 -0.2000
10157SOL    HW131921   0.843   3.313   6.296 -0.7841  2.1749  1.4245
10157SOL    HW231922   0.741   3.245   6.208  2.1898  0.5868 -0.9652
10158SOL     OW31923   5.580   0.378   0.288 -0.1659 -0.0699 -0.3628
10158SOL    HW131924   5.634   0.378   0.368 -1.5046  0.5475  0.5697
10158SOL    HW231925   5.605   0.459   0.243  0.4362 -0.3124 -0.4820
10159SOL     OW31926   0.489   6.566   3.600  0.2948  0.2989  0.6138
10159SOL    HW131927   0.540   6.644   3.620  0.7886  0.7347 -1.9925
10159SOL    HW231928   0.521   6.537   3.515 -1.9144 -1.0266  0.1390
10160SOL     OW31929   6.869   6.347   6.415 -0.4725  0.5446 -0.1180
10160SOL    HW131930   6.937   6.381   6.356  0.3281 -0.9540 -0.1196
10160SOL    HW231931   6.918   6.301   6.483 -1.4777 -0.9753 -0.3768
10161SOL     OW31932   0.473   0.980   5.350 -0.1364  0.5510  1.0120
10161SOL    HW131933   0.454   0.950   5.261  0.9349  0.3631  0.8324
10161SOL    HW231934   0.492   1.073   5.341  0.0088  0.5244  1.0355
10162SOL     OW31935   2.899   2.897   1.259 -0.2622  0.6662 -0.1365
10162SOL    HW131936   2.850   2.978   1.244 -3.5210 -0.9550  0.7164
10162SOL    HW231937   2.861   2.834   1.198  1.0285 -0.6439  0.3498
10163SOL     OW31938   5.945   1.457   0.572 -0.2480  0.1677  0.0533
10163SOL    HW131939   5.867   1.422   0.530 -0.1091 -2.3005  1.6666
10163SOL    HW231940   5.914   1.534   0.620 -0.9105  1.4011 -2.1725
10164SOL     OW31941   5.811   2.644   1.925  0.0513  0.1085  0.2970
10164SOL    HW131942   5.841   2.734   1.908 -0.2367 -0.1964 -2.1526
10164SOL    HW231943   5.889   2.590   1.915  0.0197 -0.0340  0.7779
10165SOL     OW31944   5.886   4.724   2.969  0.2617  0.3277 -0.5505
10165SOL    HW131945   5.922   4.788   3.030  1.2791 -0.1651 -0.5994
10165SOL    HW231946   5.962   4.670   2.944 -0.6680 -1.3026 -0.0019
10166SOL     OW31947   0.565   1.918   6.691 -0.4343  0.2301  0.4455
10166SOL    HW131948   0.481   1.961   6.706 -1.2690 -1.0768 -0.3156
10166SOL    HW231949   0.586   1.876   6.775 -0.4396  0.7206  0.6928
10167SOL     OW31950   6.998   3.890   2.474 -0.0944  0.4076  0.3877
10167SOL    HW131951   7.009   3.973   2.427 -2.8583 -0.0637 -1.3505
10167SOL    HW231952   6.940   3.911   2.547  0.2707  0.2266  0.7352
10168SOL     OW31953   4.054   2.125   6.939 -0.8949 -0.1244 -0.1018
10168SOL    HW131954   4.134   2.102   6.891 -0.6131  0.1996  0.2092
10168SOL    HW231955   3.983   2.101   6.879 -0.6214 -1.7425  0.1808
10169SOL     OW31956   2.846   5.156   2.091  0.9680  0.0014  0.3361
10169SOL    HW131957   2.918   5.177   2.033  0.2149  0.6951 -0.3651
10169SOL    HW231958   2.881   5.172   2.179  1.7130  0.1588  0.0186
10170SOL     OW31959   1.374   3.300   3.506  0.3361  0.9237 -0.0855
10170SOL    HW131960   1.461   3.342   3.504  0.1416  1.3199 -0.4137
10170SOL    HW231961   1.330   3.340   3.580 -0.3080  2.2630 -1.1402
10171SOL     OW31962   1.058   5.488   2.570  0.6188 -0.0263 -0.2734
10171SOL    HW131963   1.140   5.495   2.618  0.3234  2.8515 -0.0372
10171SOL    HW231964   0.990   5.507   2.635  0.0472  1.4382 -1.2673
10172SOL     OW31965   6.204   6.895   0.044 -0.2655 -0.8280 -1.2211
10172SOL    HW131966   6.159   6.812   0.029 -1.3150 -0.1468 -1.9545
10172SOL    HW231967   6.165   6.929   0.125 -1.9649  0.2855 -2.4253
10173SOL     OW31968   6.574   6.793   2.298 -0.6623  0.4644 -0.5684
10173SOL    HW131969   6.636   6.816   2.368 -0.5028  0.4181 -0.6967
10173SOL    HW231970   6.488   6.816   2.335 -1.0847 -3.3810  1.3284
10174SOL     OW31971   3.427   4.127   4.939 -0.6871  0.0418  0.9574
10174SOL    HW131972   3.519   4.102   4.945 -0.2532  1.3406  0.1378
10174SOL    HW231973   3.393   4.075   4.866  0.1576  1.5407 -0.6062
10175SOL     OW31974   3.232   5.565   3.855  0.1963  0.0901 -0.8082
10175SOL    HW131975   3.270   5.620   3.923 -0.3657  1.2196 -1.3830
10175SOL    HW231976   3.302   5.556   3.790  0.6193 -0.7135 -0.2635
10176SOL     OW31977   3.713   7.093   5.786 -0.0947 -0.1677 -0.3189
10176SOL    HW131978   3.622   7.115   5.803 -0.1132  0.2678 -0.9329
10176SOL    HW231979   3.726   7.009   5.828 -0.1577  0.7812  1.7111
10177SOL     OW31980   3.215   1.381   5.298  0.1743 -0.0902  0.1023
10177SOL    HW131981   3.230   1.304   5.243  0.9382 -0.3233  0.6199
10177SOL    HW231982   3.178   1.345   5.379 -1.6450  0.3167 -0.5015
10178SOL     OW31983   5.165   0.173   4.828  0.2623  0.0422  0.0485
10178SOL    HW131984   5.073   0.156   4.812 -0.3186  3.3816 -0.9403
10178SOL    HW231985   5.211   0.123   4.760 -0.9800 -0.0036 -0.7971
10179SOL     OW31986   5.583   6.672   2.225  0.5397 -0.2647  0.3819
10179SOL    HW131987   5.622   6.611   2.162  0.7672 -1.4535  1.6209
10179SOL    HW231988   5.609   6.759   2.194 -0.7778 -0.6481 -2.1228
10180SOL     OW31989   0.929   0.220   4.319  0.1715  0.0324 -0.1291
10180SOL    HW131990   0.948   0.302   4.365 -1.5672  2.2350 -2.9358
10180SOL    HW231991   0.996   0.216   4.251 -1.3743  0.7658 -1.7837
10181SOL     OW31992   1.846   2.597   3.996 -0.1154  0.5187  0.6577
10181SOL    HW131993   1.828   2.689   3.975  1.2845  0.5437 -0.6698
10181SOL    HW231994   1.855   2.595   4.091  0.3887  1.8770  0.6590
10182SOL     OW31995   3.320   4.898   0.977  0.1330  0.3572 -0.0389
10182SOL    HW131996   3.271   4.933   0.903  0.2686 -1.5204 -1.0948
10182SOL    HW231997   3.411   4.922   0.958  0.1117  0.2613 -0.2743
10183SOL     OW31998   2.623   3.538   4.391 -0.1262  0.5099 -0.4343
10183SOL    HW131999   2.656   3.598   4.325  0.8449  1.1718  0.6132
10183SOL    HW232000   2.547   3.496   4.350  0.0327  1.4048 -1.6954
10184SOL     OW32001   6.848   4.651   0.011  0.3728  0.2510  0.2867
10184SOL    HW132002   6.869   4.610   0.095  2.8619  2.4560  0.8797
10184SOL    HW232003   6.911   4.722   0.003 -0.8391  1.1350 -2.7407
10185SOL     OW32004   3.594   2.561   5.902 -0.2259 -0.0372  0.1665
10185SOL    HW132005   3.652   2.489   5.877  1.9323  1.5752  0.2452
10185SOL    HW232006   3.646   2.640   5.888 -2.1820  1.4817  0.9456
10186SOL     OW32007   5.416   2.842   3.481 -0.0089  0.2315  0.3482
10186SOL    HW132008   5.432   2.894   3.560 -1.2799  0.4122  0.5025
10186SOL    HW232009   5.485   2.868   3.420  2.4315 -1.5405  2.1598
10187SOL     OW32010   0.769   2.836   5.898  0.2974  0.1493 -0.6288
10187SOL    HW132011   0.729   2.789   5.972  3.2765  0.7486  1.5130
10187SOL    HW232012   0.778   2.769   5.830 -1.7927 -0.6096 -0.2610
10188SOL     OW32013   1.029   5.157   2.341 -0.3858 -0.2362 -0.0326
10188SOL    HW132014   1.021   5.081   2.283  1.2173 -1.1849  0.9089
10188SOL    HW232015   0.940   5.191   2.348 -0.6960 -0.3797 -2.6165
10189SOL     OW32016   6.538   4.296   1.275 -0.3729  0.9042  0.1336
10189SOL    HW132017   6.557   4.386   1.248  0.7458  0.4722 -0.6192
10189SOL    HW232018   6.591   4.242   1.217 -0.9419 -0.2459  0.6458
10190SOL     OW32019   4.009   4.848   3.475  0.1489  0.0041  0.2090
10190SOL    HW132020   3.923   4.845   3.517  0.6959  0.6603  1.4144
10190SOL    HW232021   4.028   4.941   3.466  0.3481 -0.1257 -0.9097
10191SOL     OW32022   2.267   5.166   6.287  0.0344 -0.0185 -0.1208
10191SOL    HW132023   2.256   5.080   6.328  1.5819 -1.3929 -2.3929
10191SOL    HW232024   2.353   5.162   6.245 -0.0387  2.5052 -0.6546
10192SOL     OW32025   2.528   4.054   4.644  0.1444  0.0769 -0.2735
10192SOL    HW132026   2.527   4.005   4.727  1.5581 -0.8108 -0.7430
10192SOL    HW232027   2.607   4.023   4.600  0.3227  1.7984 -1.2159
10193SOL     OW32028   3.501   3.653   0.563  0.4671 -0.1115 -0.5918
10193SOL    HW132029   3.414   3.634   0.529  0.0524  1.5175 -0.5278
10193SOL    HW232030   3.560   3.638   0.489 -0.1219  0.8473 -1.2762
10194SOL     OW32031   5.338   6.902   6.362 -0.2727  0.3619  0.0888
10194SOL    HW132032   5.404   6.841   6.329 -1.3737 -1.2406  0.7053
10194SOL    HW232033   5.384   6.985   6.372  1.8295 -0.8680  1.1942
10195SOL     OW32034   3.585   1.472   2.362  0.1084  0.4376  0.7573
10195SOL    HW132035   3.505   1.520   2.338 -0.6196 -0.8453  0.4913
10195SOL    HW232036   3.656   1.527   2.330 -0.7526  0.3317 -1.5741
10196SOL     OW32037   2.858   3.314   1.109 -0.3942  0.3984 -0.1616
10196SOL    HW132038   2.771   3.328   1.147 -0.7401 -0.9520 -0.4141
10196SOL    HW232039   2.847   3.240   1.050  0.5882  1.1843 -1.3963
10197SOL     OW32040   7.028   1.775   3.564 -0.0911 -0.1671 -0.5066
10197SOL    HW132041   6.961   1.836   3.597 -1.1308 -1.1684 -0.6994
10197SOL    HW232042   6.978   1.703   3.526  1.1133 -1.0223 -0.5289
10198SOL     OW32043   1.081   6.434   6.071  0.4225 -0.8335  0.0127
10198SOL    HW132044   1.010   6.447   6.134 -1.3941 -1.8805 -1.6842
10198SOL    HW232045   1.105   6.523   6.043 -0.7527 -0.4655  0.1034
10199SOL     OW32046   6.088   2.450   2.889 -0.3566 -0.0982  0.2893
10199SOL    HW132047   6.173   2.436   2.847 -0.5051 -0.2949  0.0466
10199SOL    HW232048   6.042   2.509   2.829 -0.6479 -0.5477  0.0681
10200SOL     OW32049   0.437   6.747   6.484 -0.0066 -0.0933 -0.3479
10200SOL    HW132050   0.491   6.724   6.408  0.7632  0.3295  0.0602
10200SOL    HW232051   0.387   6.667   6.502 -0.2769 -0.1655 -1.3543
10201SOL     OW32052   0.523   5.127   1.802 -0.4463  0.1707 -0.3703
10201SOL    HW132053   0.484   5.206   1.839 -0.9921 -0.5513  0.6651
10201SOL    HW232054   0.598   5.158   1.752 -0.6545  1.3403  0.0094
10202SOL     OW32055   6.538   5.412   6.195 -0.2807  0.0664  0.1749
10202SOL    HW132056   6.535   5.454   6.281 -0.9292 -1.8353  1.1209
10202SOL    HW232057   6.524   5.319   6.212 -1.9853 -0.1883 -2.1197
10203SOL     OW32058   6.726   6.084   3.517 -0.0628 -0.2802  0.0557
10203SOL    HW132059   6.694   6.055   3.603 -0.7834 -1.3267 -0.5387
10203SOL    HW232060   6.654   6.064   3.457  1.0619 -1.1508 -1.0609
10204SOL     OW32061   0.894   7.117   5.875 -0.1506  0.3342  0.2141
10204SOL    HW132062   0.908   7.025   5.897 -1.8835 -0.1272 -0.4507
10204SOL    HW232063   0.872   7.158   5.958  2.1874  0.5373  0.8084
10205SOL     OW32064   7.105   5.993   0.040 -0.5485  0.5868 -0.3300
10205SOL    HW132065   7.026   6.044   0.052 -0.5356  0.3941  0.7244
10205SOL    HW232066   7.079   5.903   0.060 -0.0737  0.5232  0.0347
10206SOL     OW32067   1.424   6.658   5.940 -0.0690 -0.1357 -0.2535
10206SOL    HW132068   1.392   6.737   5.897 -1.6673 -0.7176 -0.2209
10206SOL    HW232069   1.425   6.592   5.870  2.9853  0.2734 -0.7265
10207SOL     OW32070   0.510   0.787   6.402  0.0761 -0.0438  0.3040
10207SOL    HW132071   0.598   0.817   6.382 -0.2448  0.9857  0.3243
10207SOL    HW232072   0.454   0.834   6.340 -0.3115 -2.1549 -1.0429
10208SOL     OW32073   3.299   2.495   4.476 -0.0178 -0.1363  0.0279
10208SOL    HW132074   3.247   2.492   4.556  0.2766 -1.9362  0.1944
10208SOL    HW232075   3.388   2.514   4.507  0.3808 -2.2551  0.3477
10209SOL     OW32076   1.494   0.663   6.947 -0.1520 -0.6151  0.0114
10209SOL    HW132077   1.441   0.743   6.946  0.4259 -0.2052  1.1197
10209SOL    HW232078   1.477   0.622   6.862 -0.1525  0.8947 -0.7543
10210SOL     OW32079   4.935   2.450   4.823 -0.5348  0.2243  0.1314
10210SOL    HW132080   4.961   2.430   4.913 -2.3564  0.4396  0.7478
10210SOL    HW232081   4.864   2.514   4.832  0.3834  1.5711 -1.5388
10211SOL     OW32082   3.102   7.111   5.771  0.1023  0.1424 -0.2820
10211SOL    HW132083   3.193   7.135   5.757 -0.0697  2.2450  1.7188
10211SOL    HW232084   3.097   7.087   5.863 -1.2884 -0.3987 -0.4704
10212SOL     OW32085   5.206   4.595   2.266  0.5189 -0.1538 -0.1122
10212SOL    HW132086   5.243   4.592   2.178  2.0790  3.0011  0.2701
10212SOL    HW232087   5.223   4.685   2.295 -2.9779 -0.0221  2.1335
10213SOL     OW32088   0.294   0.801   5.803  0.0663 -0.0152 -0.7680
10213SOL    HW132089   0.273   0.839   5.889  1.1694 -0.6468 -0.2047
10213SOL    HW232090   0.213   0.810   5.753 -0.4378  0.8407  0.1638
10214SOL     OW32091   0.213   6.298   4.779  0.5367  0.0389 -0.6491
10214SOL    HW132092   0.175   6.312   4.692 -0.6861  0.3932 -0.0670
10214SOL    HW232093   0.152   6.339   4.840  1.8959  0.7039  0.3205
10215SOL     OW32094   3.808   2.859   3.006 -0.0958 -0.4718  0.3796
10215SOL    HW132095   3.808   2.823   3.095 -0.9065 -1.9317 -0.1701
10215SOL    HW232096   3.749   2.801   2.957  1.0147 -0.2365 -1.3245
10216SOL     OW32097   4.603   6.375   0.518 -0.2753 -0.1923  0.0937
10216SOL    HW132098   4.603   6.449   0.579  0.7165  0.6261 -0.8491
10216SOL    HW232099   4.633   6.413   0.435 -0.7091 -1.4603 -0.6697
10217SOL     OW32100   6.979   6.569   0.010  0.3412 -0.0208  0.3383
10217SOL    HW132101   6.949   6.610   0.092  0.0970  0.5276 -0.0223
10217SOL    HW232102   6.898   6.538  -0.032  0.1056  2.3686 -1.1298
10218SOL     OW32103   1.692   1.450   3.050  0.3700  0.1940  0.2181
10218SOL    HW132104   1.677   1.545   3.049 -0.2845  0.0947  0.6279
10218SOL    HW232105   1.716   1.429   2.959 -1.4459  0.4353 -0.3461
10219SOL     OW32106   4.234   4.577   4.586 -0.3555 -0.2790  0.2543
10219SOL    HW132107   4.285   4.496   4.579 -0.4788 -0.8068  3.7071
10219SOL    HW232108   4.155   4.550   4.634 -0.2896  1.8764  1.6911
10220SOL     OW32109   1.818   3.598   6.810 -0.0789 -0.5237 -0.1662
10220SOL    HW132110   1.793   3.676   6.761 -1.2906 -0.9122 -0.2017
10220SOL    HW232111   1.904   3.574   6.776  1.1765  1.8315  1.0999
10221SOL     OW32112   1.524   5.367   6.636 -0.1342  0.1405 -0.5712
10221SOL    HW132113   1.513   5.368   6.731 -0.0042  2.4002 -0.5325
10221SOL    HW232114   1.603   5.315   6.621  0.6246  0.8980  0.6730
10222SOL     OW32115   6.214   4.330   4.657 -0.1221 -0.1975  0.0961
10222SOL    HW132116   6.146   4.388   4.624 -0.5731  0.0595  1.4493
10222SOL    HW232117   6.171   4.245   4.666 -0.1920 -0.0988  0.6996
10223SOL     OW32118   4.278   6.621   7.134 -0.3667  0.1626 -0.0021
10223SOL    HW132119   4.206   6.559   7.124 -0.2375  0.1942 -1.2906
10223SOL    HW232120   4.331   6.585   7.205 -2.0222  0.5347  1.4876
10224SOL     OW32121   2.036   0.148   4.572 -0.3175  0.1011  0.3565
10224SOL    HW132122   1.962   0.184   4.524 -0.7002 -1.1236 -0.0256
10224SOL    HW232123   2.037   0.055   4.548 -1.4532 -0.9831  3.7727
10225SOL     OW32124   1.127   0.979   5.770  0.6595 -0.6794  0.6592
10225SOL    HW132125   1.206   1.033   5.762  0.5607 -0.6800 -0.3515
10225SOL    HW232126   1.057   1.034   5.736  0.5794 -1.4869 -0.5449
10226SOL     OW32127   2.897   5.508   1.457  0.5300 -0.7063  0.4086
10226SOL    HW132128   2.817   5.467   1.424  0.6314 -0.9909  0.5167
10226SOL    HW232129   2.928   5.450   1.526  1.6402 -1.3950 -0.6219
10227SOL     OW32130   5.382   3.691   2.718 -0.2917  0.6097 -0.0430
10227SOL    HW132131   5.458   3.732   2.759  0.3597 -0.6459  0.0777
10227SOL    HW232132   5.398   3.699   2.624 -0.8442  1.8034 -0.0508
10228SOL     OW32133   3.994   7.096   4.139  0.2793 -0.0910  0.1054
10228SOL    HW132134   3.929   7.072   4.073  2.3835  0.6221 -2.3657
10228SOL    HW232135   3.956   7.173   4.183  0.0845  1.3895 -2.4475
10229SOL     OW32136   3.005   2.182   2.000  0.1428 -0.8481  0.6801
10229SOL    HW132137   2.935   2.165   1.937  0.7824  0.6990 -0.4980
10229SOL    HW232138   2.996   2.274   2.022  2.9355 -0.0673 -0.9678
10230SOL     OW32139   4.893   2.551   6.088  0.4118 -0.2586  0.0897
10230SOL    HW132140   4.819   2.495   6.062 -0.1191  0.6455 -0.4032
10230SOL    HW232141   4.930   2.507   6.164 -1.2010 -0.2770  0.9119
10231SOL     OW32142   1.112   5.594   2.919  0.1858 -0.1932  0.2221
10231SOL    HW132143   1.064   5.673   2.897  1.0878  0.5816  0.9371
10231SOL    HW232144   1.158   5.616   3.000 -0.0681 -1.6813  0.7933
10232SOL     OW32145   0.681   5.616   1.392  0.1258  0.4504  0.1939
10232SOL    HW132146   0.603   5.658   1.354 -0.7564 -1.2922 -0.0186
10232SOL    HW232147   0.753   5.674   1.368 -0.8597  1.1425 -1.2622
10233SOL     OW32148   5.417   5.431   4.490 -0.1785  0.8885  0.3544
10233SOL    HW132149   5.352   5.422   4.420 -0.5351 -0.4997  0.8262
10233SOL    HW232150   5.483   5.364   4.470 -0.5251  0.1619  1.5696
10234SOL     OW32151   1.381   6.027   0.868 -0.4077  0.3800 -0.1911
10234SOL    HW132152   1.291   6.056   0.854 -1.4873 -2.2235  0.6421
10234SOL    HW232153   1.412   6.078   0.943 -1.4698  0.7696 -0.0026
10235SOL     OW32154   4.515   1.931   7.099  0.8894  0.1902  0.0169
10235SOL    HW132155   4.504   1.986   7.177  4.9361 -1.8183  2.3476
10235SOL    HW232156   4.443   1.869   7.104 -0.1143  1.3655  0.9378
10236SOL     OW32157   3.342   5.215   5.407  0.2426 -0.2095  0.0346
10236SOL    HW132158   3.279   5.273   5.450 -0.1124 -0.3401 -0.3044
10236SOL    HW232159   3.329   5.130   5.448 -0.0873 -0.3312 -0.3156
10237SOL     OW32160   4.093   2.924   5.223 -0.4841  0.0442  0.0833
10237SOL    HW132161   4.042   2.984   5.278  2.0427  0.6334  1.9993
10237SOL    HW232162   4.179   2.921   5.265  0.7355 -1.7743 -2.2989
10238SOL     OW32163   3.546   3.893   1.388 -0.7010  0.0031  0.1198
10238SOL    HW132164   3.633   3.896   1.347 -1.1490  2.3980 -0.8745
10238SOL    HW232165   3.534   3.982   1.423 -2.3890 -0.5482  1.0418
10239SOL     OW32166   1.597   1.472   5.042 -0.3162  0.0410  0.1911
10239SOL    HW132167   1.652   1.517   5.106 -0.3329  0.2372  0.0676
10239SOL    HW232168   1.625   1.380   5.047 -1.3202 -0.2277  1.5175
10240SOL     OW32169   6.249   0.362   5.847 -0.4231  0.7411  0.1662
10240SOL    HW132170   6.230   0.455   5.832  1.4880  1.1456 -0.0034
10240SOL    HW232171   6.340   0.352   5.820  0.6432 -0.3324  3.6869
10241SOL     OW32172   1.220   0.656   1.245 -0.5050  0.1401  0.7506
10241SOL    HW132173   1.297   0.641   1.192 -1.2232 -0.0812 -0.2601
10241SOL    HW232174   1.214   0.751   1.255 -0.0770  0.1526  0.8797
10242SOL     OW32175   2.011   6.005   4.661  0.7298  0.1754 -0.2164
10242SOL    HW132176   2.087   5.974   4.711 -0.3009 -1.8859  0.1783
10242SOL    HW232177   2.040   6.007   4.570  1.3342 -0.3570 -0.0391
10243SOL     OW32178   6.755   3.302   5.957 -0.2398 -0.4351 -0.8197
10243SOL    HW132179   6.735   3.380   5.904 -1.8896  0.3456  0.8435
10243SOL    HW232180   6.840   3.321   5.997  0.8796 -0.9026 -2.8526
10244SOL     OW32181   4.746   3.370   6.511 -0.3439  0.3924  0.3354
10244SOL    HW132182   4.772   3.282   6.483 -1.1840  0.1802  0.1868
10244SOL    HW232183   4.825   3.422   6.501  0.1569 -0.3363  0.3819
10245SOL     OW32184   1.152   0.724   3.903 -0.3284 -0.1718 -0.3071
10245SOL    HW132185   1.119   0.683   3.984  0.7725  1.4449  1.0301
10245SOL    HW232186   1.075   0.769   3.867 -0.4260  0.8207  1.0116
10246SOL     OW32187   5.711   3.123   6.869  0.0544 -0.0451 -0.7838
10246SOL    HW132188   5.687   3.128   6.961  0.6016  0.0372 -0.6404
10246SOL    HW232189   5.732   3.030   6.855  0.3185  0.0049 -0.7311
10247SOL     OW32190   5.533   5.569   0.005 -0.4893 -0.3521 -0.5109
10247SOL    HW132191   5.442   5.580   0.033 -0.5106 -0.3643 -0.5734
10247SOL    HW232192   5.537   5.614  -0.079 -0.0370  1.0357  0.2279
10248SOL     OW32193   6.303   5.749   1.473  0.1253  0.5579  0.3242
10248SOL    HW132194   6.266   5.668   1.507 -0.4086  0.9859  0.7861
10248SOL    HW232195   6.322   5.802   1.550 -1.5409  1.7330 -0.0220
10249SOL     OW32196   4.574   2.237   5.769  0.3590 -0.1500 -0.1221
10249SOL    HW132197   4.662   2.255   5.800  0.6579 -0.8305 -0.5326
10249SOL    HW232198   4.587   2.201   5.681 -0.4494  1.6316 -1.0254
10250SOL     OW32199   7.043   6.325   2.729  0.2122  0.1965 -0.0370
10250SOL    HW132200   7.006   6.391   2.670  0.4557  0.0351 -0.3750
10250SOL    HW232201   7.051   6.246   2.675 -0.0510 -0.1027  0.3556
10251SOL     OW32202   2.285   7.051   1.562 -0.2732 -0.4982  0.3025
10251SOL    HW132203   2.199   7.086   1.536 -1.0111 -1.1354  1.7201
10251SOL    HW232204   2.348   7.116   1.530 -1.4104  0.8550  0.6765
10252SOL     OW32205   3.689   0.487   0.109  0.6621  0.6912 -0.2258
10252SOL    HW132206   3.645   0.509   0.027  1.0901  0.1640 -0.6038
10252SOL    HW232207   3.706   0.393   0.103  1.5509  0.8237  0.0440
10253SOL     OW32208   3.994   2.007   5.583 -0.1546  0.3775 -0.0639
10253SOL    HW132209   4.005   2.102   5.595 -0.7734  0.4029  0.3309
10253SOL    HW232210   3.977   1.997   5.489 -1.2392  0.7833  0.0715
10254SOL     OW32211   5.347   4.497   1.033  0.3112 -0.2337  0.2157
10254SOL    HW132212   5.401   4.568   1.068  0.9159 -0.0935 -0.9484
10254SOL    HW232213   5.326   4.525   0.944 -1.3076 -0.5114  0.4748
10255SOL     OW32214   3.472   5.647   1.122 -0.2953  0.2031 -0.1366
10255SOL    HW132215   3.444   5.671   1.033 -0.4730  0.7771  0.0731
10255SOL    HW232216   3.425   5.707   1.179  0.6205  0.5325  0.2858
10256SOL     OW32217   0.872   4.487   2.606 -0.4841  0.0407  0.2665
10256SOL    HW132218   0.948   4.472   2.549 -1.0856 -4.0076  0.2317
10256SOL    HW232219   0.908   4.495   2.694  0.0853 -1.6199  0.2189
10257SOL     OW32220   3.634   4.128   3.387 -0.4608  0.2984 -0.3541
10257SOL    HW132221   3.721   4.140   3.425  0.0818  2.6101 -2.1009
10257SOL    HW232222   3.577   4.113   3.462  1.3017 -0.4113  0.9028
10258SOL     OW32223   0.090   1.076   1.119  0.1526  0.0386 -0.2392
10258SOL    HW132224   0.119   0.990   1.148 -2.3764 -1.7774 -2.5619
10258SOL    HW232225  -0.004   1.078   1.139  0.0022  1.9368 -0.9103
10259SOL     OW32226   0.215   3.344   0.728 -0.0559  0.3299  0.3565
10259SOL    HW132227   0.235   3.293   0.650 -0.9845 -1.5712  1.2734
10259SOL    HW232228   0.301   3.367   0.764  0.3972 -0.3394 -0.2551
10260SOL     OW32229   4.298   5.472   2.371 -0.5949 -0.3678 -0.5413
10260SOL    HW132230   4.377   5.520   2.345  0.0437 -1.5623 -0.9044
10260SOL    HW232231   4.226   5.528   2.344  0.1070  1.3332  0.9132
10261SOL     OW32232   0.557   6.706   2.644  0.2404  0.1136  0.4411
10261SOL    HW132233   0.585   6.651   2.571 -1.0206  2.1570 -1.7567
10261SOL    HW232234   0.463   6.689   2.652 -0.3600  2.4268 -0.8614
10262SOL     OW32235   5.577   0.293   2.698  0.5970  0.6233 -0.4706
10262SOL    HW132236   5.520   0.342   2.758  1.3229  0.4922  0.3410
10262SOL    HW232237   5.626   0.361   2.651  1.2244  0.7081  0.2816
10263SOL     OW32238   7.072   4.511   1.155 -0.4238  0.6839 -0.2206
10263SOL    HW132239   7.074   4.603   1.127 -0.1990  0.3745 -1.2622
10263SOL    HW232240   7.008   4.509   1.226  1.6578  2.1923  1.9065
10264SOL     OW32241   5.324   2.747   1.021  0.2420 -0.0957  0.3083
10264SOL    HW132242   5.287   2.723   1.106  1.5032 -2.0412  0.3644
10264SOL    HW232243   5.375   2.826   1.038  0.3268 -0.3564  1.3210
10265SOL     OW32244   6.805   0.432   7.064 -0.0388 -0.0675  0.0991
10265SOL    HW132245   6.808   0.524   7.091  1.1539 -0.2884  0.7465
10265SOL    HW232246   6.785   0.436   6.970 -1.2872  0.7941  0.3743
10266SOL     OW32247   5.482   0.887   6.682  0.0860 -0.0881 -0.3264
10266SOL    HW132248   5.518   0.829   6.614 -2.9610 -0.8647 -1.4402
10266SOL    HW232249   5.466   0.969   6.636 -1.6613 -0.5030 -0.5037
10267SOL     OW32250   2.052   4.885   0.892  0.2916  0.1252 -0.2744
10267SOL    HW132251   2.024   4.924   0.975 -0.4708 -1.7699  0.3948
10267SOL    HW232252   1.979   4.901   0.833 -0.0990 -0.4208  0.0517
10268SOL     OW32253   0.168   2.143   3.715 -0.4417 -0.1802 -0.0297
10268SOL    HW132254   0.202   2.069   3.764 -1.4085 -0.1471  0.7309
10268SOL    HW232255   0.231   2.158   3.645  0.8441 -0.3977  1.0589
10269SOL     OW32256   0.126   4.287   1.951 -0.2866 -0.0776 -0.1910
10269SOL    HW132257   0.054   4.225   1.958 -0.4862  0.0165 -1.3242
10269SOL    HW232258   0.129   4.311   1.859  1.2889 -0.1827 -0.1941
10270SOL     OW32259   0.186   2.765   6.023  0.6374  0.1964 -0.4347
10270SOL    HW132260   0.138   2.823   6.081 -1.1206 -1.6061  0.0527
10270SOL    HW232261   0.194   2.813   5.941  0.0164  1.4263  0.2091
10271SOL     OW32262   6.997   5.778   2.276  0.1650 -0.2337  0.5044
10271SOL    HW132263   6.994   5.744   2.366 -1.3573 -2.1047 -0.1786
10271SOL    HW232264   6.907   5.804   2.257  0.6518  1.0135 -0.2040
10272SOL     OW32265   4.779   3.238   6.875 -0.1577  0.3043  0.2407
10272SOL    HW132266   4.764   3.153   6.834  1.2505  0.1213  0.0721
10272SOL    HW232267   4.806   3.295   6.803 -0.1613  0.6431  0.5049
10273SOL     OW32268   3.710   3.656   6.117 -0.5162  0.4589 -0.0750
10273SOL    HW132269   3.624   3.621   6.141 -0.3863 -3.0493 -3.6225
10273SOL    HW232270   3.771   3.612   6.176 -0.9428  0.6122  0.4836
10274SOL     OW32271   1.997   6.583   3.858  0.3264  0.3169  0.0787
10274SOL    HW132272   2.044   6.620   3.783  2.9153 -0.5201  1.1788
10274SOL    HW232273   2.056   6.515   3.891 -1.0870  0.1511  2.4299
10275SOL     OW32274   2.155   6.388   6.812 -0.4527  0.3657 -0.1446
10275SOL    HW132275   2.219   6.344   6.867 -0.0180  0.7174 -0.3637
10275SOL    HW232276   2.074   6.385   6.863 -0.2789 -0.1356  0.1060
10276SOL     OW32277   3.954   0.237   4.964 -0.3936 -0.1344 -0.0957
10276SOL    HW132278   3.996   0.192   5.037 -0.7821 -0.3711 -0.0111
10276SOL    HW232279   3.942   0.327   4.994  1.9863  0.5155 -0.9225
10277SOL     OW32280   3.592   0.807   3.423 -0.1121 -0.0288  0.3195
10277SOL    HW132281   3.665   0.759   3.383 -1.3543  0.6955 -3.1401
10277SOL    HW232282   3.588   0.889   3.373 -2.8756  0.2146  0.8070
10278SOL     OW32283   0.456   3.164   0.946 -0.6418 -0.0774 -0.7230
10278SOL    HW132284   0.472   3.204   1.031 -0.4741  0.4278 -0.9877
10278SOL    HW232285   0.543   3.158   0.906 -0.5381 -1.5215 -0.3398
10279SOL     OW32286   0.062   0.006   3.188  0.1108  0.0421 -1.1858
10279SOL    HW132287   0.098  -0.065   3.242 -0.4096 -0.2682 -1.2471
10279SOL    HW232288   0.120   0.080   3.205 -0.7547  0.3263  0.7701
10280SOL     OW32289   2.185   4.246   1.595  0.0742 -0.1032 -0.1696
10280SOL    HW132290   2.152   4.325   1.551  1.4515  0.3764 -0.3709
10280SOL    HW232291   2.195   4.182   1.524  2.3921  0.7015 -0.6632
10281SOL     OW32292   6.959   7.027   3.108  0.7732 -0.7455  0.2712
10281SOL    HW132293   6.877   7.042   3.155  1.1994 -0.8215  1.0469
10281SOL    HW232294   7.007   6.964   3.161  2.4165  1.1195  1.1610
10282SOL     OW32295   7.013   3.381   0.184 -0.0092  0.7751 -0.2171
10282SOL    HW132296   6.942   3.440   0.210  1.1770  1.2844  2.2356
10282SOL    HW232297   6.979   3.333   0.109 -2.6488  1.5329  0.3969
10283SOL     OW32298   2.675   5.299   0.697  0.3359 -0.2956  0.2982
10283SOL    HW132299   2.737   5.235   0.733  1.3171  0.2491 -0.3644
10283SOL    HW232300   2.677   5.284   0.602 -0.1293  0.0971  0.2202
10284SOL     OW32301   0.397   1.510   3.481 -0.4236  0.1379  0.2794
10284SOL    HW132302   0.316   1.459   3.477  0.6147 -1.7070  1.6320
10284SOL    HW232303   0.388   1.574   3.410 -2.3173 -1.1164 -0.6959
10285SOL     OW32304   0.075   4.518   3.096 -0.2741  0.3802  1.0410
10285SOL    HW132305   0.136   4.511   3.169  0.1616 -0.9600  0.5999
10285SOL    HW232306   0.105   4.594   3.046  0.1203  0.6229  1.6450
10286SOL     OW32307   5.532   6.321   2.787  0.3235  0.0531  0.4514
10286SOL    HW132308   5.444   6.288   2.774  0.1382  0.7245 -0.0501
10286SOL    HW232309   5.584   6.243   2.809 -0.0688 -0.6138 -0.8340
10287SOL     OW32310   3.249   6.094   0.420  0.9283  0.4750 -0.0760
10287SOL    HW132311   3.291   6.043   0.350  0.5933 -0.7121  0.5514
10287SOL    HW232312   3.183   6.034   0.457 -0.6091  1.9220 -0.3533
10288SOL     OW32313   4.209   7.032   5.259 -0.1201 -0.3494  0.5376
10288SOL    HW132314   4.220   7.037   5.164 -1.6268 -0.8910  0.3119
10288SOL    HW232315   4.265   6.959   5.286 -0.1208 -0.5560 -0.0168
10289SOL     OW32316   5.406   5.772   6.082 -0.4703  0.5058  0.1646
10289SOL    HW132317   5.348   5.713   6.035 -1.6868  1.7381  0.0674
10289SOL    HW232318   5.349   5.815   6.146  0.8354 -0.0117  1.7522
10290SOL     OW32319   0.744   5.763   4.470  0.6387 -0.1718 -0.0598
10290SOL    HW132320   0.724   5.856   4.460 -2.8567 -0.6997  0.6943
10290SOL    HW232321   0.723   5.725   4.385 -0.2869 -0.5592  0.3289
10291SOL     OW32322   1.214   0.757   2.171  0.1012 -0.0398  0.2371
10291SOL    HW132323   1.213   0.852   2.186  1.3102  0.0900 -0.3074
10291SOL    HW232324   1.129   0.727   2.201 -0.9411  1.4592 -1.0345
10292SOL     OW32325   3.274   3.882   6.118  0.7774 -0.3849  0.7620
10292SOL    HW132326   3.267   3.787   6.113  1.7487 -0.3982 -1.2388
10292SOL    HW232327   3.361   3.897   6.155  0.7866 -0.2763  0.6965
10293SOL     OW32328   1.453   6.575   0.624  0.4082 -0.4267  0.6419
10293SOL    HW132329   1.471   6.625   0.544  0.4009  1.4678  1.7811
10293SOL    HW232330   1.514   6.501   0.620  1.7187  0.6612 -0.2085
10294SOL     OW32331   5.009   0.523   6.040 -0.2626  0.1786 -0.3452
10294SOL    HW132332   5.086   0.496   5.989  0.4439  0.5837  0.4867
10294SOL    HW232333   4.935   0.509   5.981  0.7404  3.3331 -2.6303
10295SOL     OW32334   4.781   4.268   4.520  0.4609 -0.4594  0.3684
10295SOL    HW132335   4.754   4.268   4.612  3.1156 -0.7863  1.2211
10295SOL    HW232336   4.871   4.237   4.521  0.5097 -0.6653 -2.3962
10296SOL     OW32337   5.496   1.045   6.924  0.2019  0.4802 -0.3859
10296SOL    HW132338   5.563   0.977   6.937 -3.9131 -4.1809 -0.6362
10296SOL    HW232339   5.471   1.036   6.832 -1.3162  1.4177 -0.0948
10297SOL     OW32340   6.533   3.776   2.604  0.3264  0.2647  0.1290
10297SOL    HW132341   6.482   3.696   2.614  1.0369  0.0298  2.6929
10297SOL    HW232342   6.609   3.750   2.551 -0.0738 -0.4409 -0.1061
10298SOL     OW32343   5.488   3.982   3.234 -0.1730 -0.1493  0.1172
10298SOL    HW132344   5.457   3.928   3.307 -2.9582  0.6048 -0.4003
10298SOL    HW232345   5.558   3.930   3.194 -1.6397 -2.6748  0.6216
10299SOL     OW32346   0.170   1.858   4.839 -0.1082  0.0794 -0.3811
10299SOL    HW132347   0.111   1.893   4.905 -1.8426 -0.3577 -1.6317
10299SOL    HW232348   0.145   1.902   4.758  1.4331  0.0197 -0.9306
10300SOL     OW32349   0.053   7.036   0.478 -0.6758 -0.2103 -1.0604
10300SOL    HW132350  -0.041   7.033   0.494 -0.4131 -2.0142  0.4603
10300SOL    HW232351   0.069   6.964   0.417 -0.2710  0.0620 -1.2795
10301SOL     OW32352   7.093   1.458   4.907 -1.0501 -0.2530 -0.5106
10301SOL    HW132353   7.178   1.495   4.934 -1.4225  2.0514 -2.2053
10301SOL    HW232354   7.116   1.389   4.844 -0.4132 -1.3687  0.8757
10302SOL     OW32355   5.842   4.648   7.098 -0.2341 -0.1151 -0.3316
10302SOL    HW132356   5.870   4.618   7.012 -1.4371 -1.4135 -0.3135
10302SOL    HW232357   5.771   4.588   7.122  0.2587  0.0311  1.6845
10303SOL     OW32358   0.029   1.614   1.564 -0.0817  0.5164  0.0930
10303SOL    HW132359   0.048   1.648   1.651  0.3129  0.0430  0.1976
10303SOL    HW232360   0.066   1.526   1.564  0.4640  0.7234 -0.7475
10304SOL     OW32361   0.836   1.931   1.082  0.0393 -0.2623 -0.2472
10304SOL    HW132362   0.926   1.923   1.052  0.1475 -1.4008  0.2975
10304SOL    HW232363   0.841   1.989   1.158  0.3548 -0.4450 -0.1232
10305SOL     OW32364   3.215   1.087   2.044 -0.1391  0.0054  0.8439
10305SOL    HW132365   3.198   0.996   2.022  0.1139 -0.2250  1.5940
10305SOL    HW232366   3.131   1.120   2.075 -0.4436  0.2715 -0.2144
10306SOL     OW32367   5.908   4.774   0.638  0.3975  0.4858 -0.9118
10306SOL    HW132368   5.901   4.711   0.567  3.4808 -0.5968 -0.3980
10306SOL    HW232369   5.867   4.854   0.603 -2.5293 -1.3247 -2.0107
10307SOL     OW32370   4.331   1.400   0.807 -0.6536  0.3437 -0.0225
10307SOL    HW132371   4.344   1.425   0.899  2.1271  0.5861 -0.4066
10307SOL    HW232372   4.298   1.310   0.812  2.2050 -0.7418  1.2708
10308SOL     OW32373   5.166   4.422   4.995 -0.3800 -0.4839  0.2759
10308SOL    HW132374   5.147   4.384   4.909 -0.9650 -0.3727  0.3499
10308SOL    HW232375   5.237   4.484   4.978  0.0259 -1.0123  0.0111
10309SOL     OW32376   4.365   3.761   0.293  0.1756  0.6140 -0.1977
10309SOL    HW132377   4.422   3.749   0.217 -0.4318  0.9717 -0.7233
10309SOL    HW232378   4.352   3.856   0.298 -0.1323  0.5587  0.0874
10310SOL     OW32379   1.563   5.817   1.512 -0.2116 -0.6916 -0.4613
10310SOL    HW132380   1.540   5.761   1.586 -0.1571  1.2883  1.1623
10310SOL    HW232381   1.571   5.758   1.438  1.0837 -2.9853  1.3784
10311SOL     OW32382   2.085   5.897   6.794  0.2771 -0.9298 -0.1885
10311SOL    HW132383   2.107   5.892   6.887 -1.0365 -1.0911  0.1301
10311SOL    HW232384   2.061   5.989   6.781  0.1409 -0.9821 -0.2974
10312SOL     OW32385   4.732   6.800   5.172 -0.0435  0.6189  0.1412
10312SOL    HW132386   4.815   6.754   5.166 -1.0125 -1.1511 -0.4393
10312SOL    HW232387   4.741   6.874   5.113  1.1490  0.5244  0.1801
10313SOL     OW32388   5.355   5.041   6.391  0.0507 -0.2988 -0.2737
10313SOL    HW132389   5.440   4.999   6.408  0.6516  0.6356 -0.9018
10313SOL    HW232390   5.303   5.022   6.468  0.5587 -1.5692 -0.2209
10314SOL     OW32391   1.821   0.838   3.371 -0.4038 -0.1709  0.0361
10314SOL    HW132392   1.910   0.827   3.336 -0.7214  0.0122 -0.8359
10314SOL    HW232393   1.809   0.933   3.374 -0.0444 -0.1461  1.5304
10315SOL     OW32394   6.611   6.096   2.427  0.3048  0.5914  0.3499
10315SOL    HW132395   6.516   6.104   2.440  0.3877  0.5501  0.9816
10315SOL    HW232396   6.648   6.170   2.474  0.6948 -0.2834  1.4565
10316SOL     OW32397   2.587   5.618   4.151  0.1155 -0.1371 -0.5270
10316SOL    HW132398   2.529   5.690   4.127 -0.9816 -0.5022  0.8600
10316SOL    HW232399   2.610   5.576   4.069 -0.2752  1.0070 -1.2406
10317SOL     OW32400   1.287   1.811   4.031  0.0626 -0.2400 -0.2761
10317SOL    HW132401   1.296   1.732   3.978  2.2196  0.5683 -1.2151
10317SOL    HW232402   1.268   1.881   3.968 -1.3489  0.1205  0.4864
10318SOL     OW32403   2.234   1.516   2.149 -0.2768  0.3832 -0.2690
10318SOL    HW132404   2.264   1.470   2.227  3.0360 -1.6917 -2.4974
10318SOL    HW232405   2.224   1.448   2.082 -2.9211  2.0493 -1.7577
10319SOL     OW32406   3.396   6.407   3.636  0.2165  0.4510  0.1731
10319SOL    HW132407   3.435   6.331   3.593  1.8081  1.1624  0.2619
10319SOL    HW232408   3.306   6.409   3.605  0.2763 -1.1917 -0.1893
10320SOL     OW32409   1.708   6.929   5.773  0.2995 -0.5929  0.3291
10320SOL    HW132410   1.662   6.887   5.700 -2.4331  1.3587  0.7944
10320SOL    HW232411   1.650   6.917   5.848 -0.0963  2.8923  0.7297
10321SOL     OW32412   6.775   3.502   3.516  0.3890 -0.1235  0.0032
10321SOL    HW132413   6.814   3.416   3.529 -0.2027 -0.3535  0.3005
10321SOL    HW232414   6.812   3.533   3.433 -0.1094 -1.0677 -0.5813
10322SOL     OW32415   2.792   3.581   2.233 -0.1599 -0.5372  0.0995
10322SOL    HW132416   2.721   3.622   2.283 -0.0208  0.6619 -0.6372
10322SOL    HW232417   2.854   3.652   2.217  0.7927 -1.3811 -0.0079
10323SOL     OW32418   3.817   6.744   1.228  0.0763 -0.3491  0.2365
10323SOL    HW132419   3.866   6.721   1.307 -0.7636 -1.0274  0.5724
10323SOL    HW232420   3.761   6.816   1.255  0.7199  0.2798 -0.0896
10324SOL     OW32421   6.102   0.345   3.529  0.8920  0.7209  0.0881
10324SOL    HW132422   6.139   0.428   3.558  1.1095  0.9522 -0.8187
10324SOL    HW232423   6.022   0.369   3.482  0.9539  0.4222 -0.1742
10325SOL     OW32424   4.557   1.060   2.999  0.2677  0.7364 -0.1830
10325SOL    HW132425   4.632   1.029   2.948  1.0188  1.0225  0.6942
10325SOL    HW232426   4.537   1.147   2.964  1.4104  1.3539  0.5957
10326SOL     OW32427   3.358   4.738   3.667  0.3406  0.2186 -0.0653
10326SOL    HW132428   3.306   4.734   3.587 -0.4755  0.7357  0.4276
10326SOL    HW232429   3.384   4.830   3.674 -0.5488  0.4088  0.8539
10327SOL     OW32430   1.613   2.224   0.502 -0.0056 -0.3181  0.5720
10327SOL    HW132431   1.638   2.292   0.439  0.8628 -1.0238  0.1222
10327SOL    HW232432   1.520   2.211   0.487 -0.9138  2.7276  2.5985
10328SOL     OW32433   0.582   2.459   1.958 -0.0888  0.2555  0.5667
10328SOL    HW132434   0.583   2.520   1.884 -0.7268 -0.9953 -0.5164
10328SOL    HW232435   0.502   2.408   1.947  0.3680 -0.7228  1.4816
10329SOL     OW32436   2.152   2.914   4.069  0.5169  0.5614 -0.2422
10329SOL    HW132437   2.174   2.869   4.150 -0.7930 -0.2633 -0.3092
10329SOL    HW232438   2.201   2.868   4.001 -0.2814 -0.3603 -0.2177
10330SOL     OW32439   1.062   2.838   6.410 -0.2043 -1.0839 -0.3897
10330SOL    HW132440   1.019   2.802   6.488  0.5231 -1.8884 -0.3503
10330SOL    HW232441   1.032   2.929   6.407 -0.1318 -0.9894  0.9256
10331SOL     OW32442   1.597   4.309   5.505  0.0061 -0.1362 -0.5328
10331SOL    HW132443   1.513   4.351   5.522  0.0936  1.0592 -2.7404
10331SOL    HW232444   1.584   4.218   5.533 -1.3282  0.4847  1.0324
10332SOL     OW32445   0.961   3.987   3.689 -0.3104  0.9611  0.5049
10332SOL    HW132446   0.954   4.083   3.684  1.2242  1.0644 -4.1628
10332SOL    HW232447   0.878   3.955   3.654  0.2657  0.7046 -0.6623
10333SOL     OW32448   2.115   4.315   1.857  0.0255 -0.3352  0.0199
10333SOL    HW132449   2.120   4.398   1.810 -0.0114  0.0104  0.6119
10333SOL    HW232450   2.179   4.258   1.813  0.3402  0.1371 -0.1371
10334SOL     OW32451   1.577   4.807   5.477  0.1600  0.0482 -0.1667
10334SOL    HW132452   1.513   4.809   5.548  2.2741  1.3730  1.8400
10334SOL    HW232453   1.622   4.724   5.488 -0.9450 -0.7521 -1.3997
10335SOL     OW32454   1.264   6.505   6.428  0.6896 -0.3285 -0.1997
10335SOL    HW132455   1.224   6.418   6.434 -0.2594  0.1035 -0.1206
10335SOL    HW232456   1.235   6.538   6.343 -0.6947  0.7491  0.6658
10336SOL     OW32457   6.370   3.194   2.783 -0.0681  0.2297 -0.0095
10336SOL    HW132458   6.285   3.148   2.783  0.6992 -1.2482  0.0462
10336SOL    HW232459   6.365   3.253   2.708 -1.1534  0.1829  0.0042
10337SOL     OW32460   2.308   4.595   2.911 -0.3188  0.0186  0.7159
10337SOL    HW132461   2.270   4.616   2.996  0.4003  0.6552  0.8915
10337SOL    HW232462   2.301   4.676   2.861  0.9181  0.2092  0.8056
10338SOL     OW32463   5.406   3.735   2.458  0.0477 -0.2746  0.4756
10338SOL    HW132464   5.430   3.809   2.402  1.5988 -3.0912 -3.0177
10338SOL    HW232465   5.312   3.724   2.444  0.3989 -0.9076 -1.7482
10339SOL     OW32466   1.093   2.773   1.190 -0.7487 -0.4761 -0.4488
10339SOL    HW132467   1.104   2.697   1.248 -2.3589 -0.1298  0.3726
10339SOL    HW232468   1.130   2.846   1.240  1.7852 -0.7977 -1.6677
10340SOL     OW32469   3.385   1.034   0.250  0.2155  0.3256  0.1587
10340SOL    HW132470   3.317   1.005   0.189 -0.8071  0.2716  1.2781
10340SOL    HW232471   3.459   1.059   0.194  0.0008 -1.4520 -1.0163
10341SOL     OW32472   6.820   2.452   3.719  0.3270 -0.0346 -0.1238
10341SOL    HW132473   6.882   2.431   3.650  0.4402  1.1122 -0.3795
10341SOL    HW232474   6.803   2.546   3.710 -0.6589 -0.1212  0.5822
10342SOL     OW32475   5.853   0.391   2.488  0.0536  0.4533  0.3376
10342SOL    HW132476   5.869   0.471   2.538  0.3087  0.8744 -0.4034
10342SOL    HW232477   5.878   0.320   2.548  0.2761  0.9428  0.8355
10343SOL     OW32478   3.207   5.264   3.284  0.3980  0.6552 -0.3646
10343SOL    HW132479   3.236   5.317   3.210  0.7470  0.1638 -0.5848
10343SOL    HW232480   3.177   5.328   3.349 -0.2812  1.0759 -1.0782
10344SOL     OW32481   3.505   6.746   3.209 -0.1117  0.2189  0.0919
10344SOL    HW132482   3.439   6.759   3.140 -0.0374 -1.4269 -0.3196
10344SOL    HW232483   3.462   6.691   3.274  0.6132 -0.2843  0.1612
10345SOL     OW32484   3.096   4.627   2.140 -0.1462  0.3325 -0.0457
10345SOL    HW132485   3.009   4.633   2.180  0.0765 -0.8176  0.6408
10345SOL    HW232486   3.103   4.537   2.110  0.9793  0.2919  0.3005
10346SOL     OW32487   0.918   4.078   5.254 -0.0975 -0.0320 -0.4274
10346SOL    HW132488   0.940   4.008   5.315  3.3116  1.2216  0.0081
10346SOL    HW232489   0.941   4.043   5.168  2.3079  0.6593 -0.1419
10347SOL     OW32490   0.818   1.963   5.654 -0.4010 -0.4753 -0.3826
10347SOL    HW132491   0.743   2.023   5.657 -0.9312 -1.0618 -1.3867
10347SOL    HW232492   0.814   1.916   5.737 -0.1139  0.6950  0.3202
10348SOL     OW32493   0.829   0.195   4.001 -0.5574  0.4863 -0.4551
10348SOL    HW132494   0.882   0.274   3.992  0.9633 -0.1158  2.1425
10348SOL    HW232495   0.893   0.123   3.993 -1.1808 -0.3049  1.1752
10349SOL     OW32496   2.231   6.123   0.734 -0.3129  0.5410  0.2205
10349SOL    HW132497   2.139   6.152   0.735 -0.4323  0.1633  0.7555
10349SOL    HW232498   2.235   6.061   0.661 -0.5247  0.4501  0.2829
10350SOL     OW32499   3.609   5.449   5.643 -0.4128 -0.7731 -0.7064
10350SOL    HW132500   3.568   5.438   5.558  0.5370 -1.0443 -1.1340
10350SOL    HW232501   3.661   5.529   5.635 -1.5811  0.1029  0.1309
10351SOL     OW32502   5.956   4.706   0.931  0.1529  0.1489  0.2229
10351SOL    HW132503   6.044   4.712   0.894  0.1927  1.2424  0.4766
10351SOL    HW232504   5.898   4.711   0.855  0.2936 -0.4991  0.0630
10352SOL     OW32505   5.424   1.500   5.781 -0.1888 -0.2375 -0.4000
10352SOL    HW132506   5.407   1.567   5.847  0.1030 -0.6856  0.1303
10352SOL    HW232507   5.356   1.434   5.795 -1.3747  0.6096 -1.8507
10353SOL     OW32508   6.076   4.561   2.970 -0.2925  0.4676  0.0105
10353SOL    HW132509   6.099   4.489   3.029  1.0912  1.0550  0.2177
10353SOL    HW232510   6.104   4.640   3.016  1.8795  0.8811 -1.8752
10354SOL     OW32511   1.983   3.927   2.175  0.5582 -0.4377  0.5414
10354SOL    HW132512   1.960   3.938   2.267 -0.9140 -0.4177  0.1950
10354SOL    HW232513   1.987   4.016   2.141 -4.2941 -0.3898 -0.6032
10355SOL     OW32514   4.145   5.633   5.255 -0.5489  0.0614 -0.2199
10355SOL    HW132515   4.065   5.582   5.243 -0.7100  0.3381 -0.3457
10355SOL    HW232516   4.203   5.603   5.186  0.6953 -2.4545  1.7417
10356SOL     OW32517   5.274   5.384   6.676 -0.6893 -0.0868 -0.5746
10356SOL    HW132518   5.193   5.353   6.715 -0.3442  0.0395  0.2590
10356SOL    HW232519   5.250   5.406   6.585 -2.1266  2.0233  0.2272
10357SOL     OW32520   4.170   2.412   2.137 -0.0315  0.2636 -0.3692
10357SOL    HW132521   4.248   2.442   2.089  0.9164 -1.4232  0.0373
10357SOL    HW232522   4.172   2.462   2.219 -0.4808  1.6232 -1.1579
10358SOL     OW32523   2.061   3.772   2.824 -0.9939  0.1060 -0.6502
10358SOL    HW132524   2.150   3.753   2.855 -0.9948  0.5337 -0.3705
10358SOL    HW232525   2.049   3.866   2.842 -1.2120  0.2313 -1.4127
10359SOL     OW32526   0.136   4.265   6.363  0.4432 -0.7083  0.1195
10359SOL    HW132527   0.041   4.248   6.363  0.2693 -0.4411 -2.9033
10359SOL    HW232528   0.142   4.360   6.368  0.5570 -0.7463  0.6472
10360SOL     OW32529   3.420   4.911   2.610 -0.9586  0.4473  0.1860
10360SOL    HW132530   3.355   4.915   2.540 -0.1117  0.7411 -0.5888
10360SOL    HW232531   3.498   4.874   2.569 -0.1410  1.5337  0.7316
10361SOL     OW32532   0.149   1.751   2.107 -0.4399 -0.6718  0.0470
10361SOL    HW132533   0.222   1.695   2.081 -0.9277 -1.5584  0.5335
10361SOL    HW232534   0.110   1.706   2.181 -0.3779  0.7137  0.9684
10362SOL     OW32535   6.594   4.779   6.326 -0.4643 -0.8863  0.3280
10362SOL    HW132536   6.560   4.691   6.341  0.0202 -0.7485  2.6030
10362SOL    HW232537   6.654   4.769   6.252 -1.2885 -2.2039 -0.2048
10363SOL     OW32538   1.060   1.644   3.783  0.0817  0.6316  0.4948
10363SOL    HW132539   0.972   1.616   3.809  0.6546 -0.6310  1.1504
10363SOL    HW232540   1.061   1.738   3.802 -1.7123  1.0553 -1.2600
10364SOL     OW32541   2.462   5.351   1.118 -0.1067 -0.3805 -0.0412
10364SOL    HW132542   2.382   5.316   1.079 -0.1593 -1.1944  0.7673
10364SOL    HW232543   2.511   5.273   1.145  0.8408  0.1138 -0.2896
10365SOL     OW32544   3.666   2.104   6.304  0.0300 -0.2898  0.5103
10365SOL    HW132545   3.736   2.143   6.252  0.9195 -0.0753  1.8249
10365SOL    HW232546   3.710   2.043   6.362 -0.9147 -0.3934  1.1394
10366SOL     OW32547   2.521   3.887   6.124  0.0176 -0.1075  0.3028
10366SOL    HW132548   2.551   3.972   6.092 -0.5024 -0.3497 -0.9100
10366SOL    HW232549   2.530   3.829   6.048 -0.5749 -0.8997  0.8250
10367SOL     OW32550   0.093   2.694   6.949 -0.4159 -0.0392 -0.1407
10367SOL    HW132551   0.077   2.704   6.855  0.5938  0.2960 -0.2950
10367SOL    HW232552   0.158   2.761   6.969 -1.3206  0.5401  1.0074
10368SOL     OW32553   3.946   1.059   0.736 -0.4783 -0.2024  0.1967
10368SOL    HW132554   3.942   1.154   0.731  0.3498 -0.0725  1.4467
10368SOL    HW232555   3.984   1.031   0.653  2.4945  0.8511  1.0736
10369SOL     OW32556   2.820   0.437   4.125  0.1343  1.1809 -0.0314
10369SOL    HW132557   2.911   0.458   4.143  0.4879  2.0382 -2.5105
10369SOL    HW232558   2.823   0.361   4.068 -0.8921 -0.8646  2.4507
10370SOL     OW32559   1.549   6.442   4.472  0.6390 -0.0157  0.5555
10370SOL    HW132560   1.465   6.397   4.480 -0.6584  1.7602 -1.6904
10370SOL    HW232561   1.543   6.517   4.531 -0.5294  1.5856 -1.4712
10371SOL     OW32562   3.886   2.875   3.565  0.4025  0.2521  0.1747
10371SOL    HW132563   3.821   2.943   3.547  1.2269  0.8447 -0.6768
10371SOL    HW232564   3.835   2.802   3.602 -0.7716  0.6145 -0.6664
10372SOL     OW32565   1.854   3.311   4.819 -0.3763  0.0357 -0.2764
10372SOL    HW132566   1.763   3.330   4.843 -0.4781 -0.5295 -0.2063
10372SOL    HW232567   1.889   3.261   4.892 -0.4657 -1.0487 -0.9508
10373SOL     OW32568   4.844   2.647   0.976  0.3644 -0.3607  0.3852
10373SOL    HW132569   4.838   2.741   0.957 -0.7390 -0.7424 -1.3635
10373SOL    HW232570   4.874   2.608   0.893 -3.6881 -2.0213 -0.5241
10374SOL     OW32571   1.031   6.774   5.396  0.2610  0.1952  0.1525
10374SOL    HW132572   1.112   6.753   5.349  0.7756  1.1387  0.6063
10374SOL    HW232573   0.980   6.826   5.333  1.5673  2.7211  1.0565
10375SOL     OW32574   5.921   0.663   5.291 -0.1006 -0.7328  0.0805
10375SOL    HW132575   5.861   0.738   5.298 -0.6369 -1.1636  0.1848
10375SOL    HW232576   5.867   0.587   5.315  1.3341 -0.7894  3.8965
10376SOL     OW32577   1.215   4.734   1.909  0.2588 -0.3098  0.1793
10376SOL    HW132578   1.192   4.698   1.823 -1.9017 -1.3907  1.1370
10376SOL    HW232579   1.201   4.828   1.900  2.8566  0.0361 -1.4194
10377SOL     OW32580   0.382   0.923   5.079 -0.3562 -0.2088 -0.6342
10377SOL    HW132581   0.306   0.881   5.037 -1.2004 -0.4342  1.0518
10377SOL    HW232582   0.457   0.874   5.046 -1.0640 -0.9898 -1.1453
10378SOL     OW32583   6.129   0.405   2.812 -0.3422  0.3499  0.3194
10378SOL    HW132584   6.036   0.383   2.823 -1.1678  1.7538 -2.7457
10378SOL    HW232585   6.168   0.325   2.777 -0.0195 -0.6667  2.8156
10379SOL     OW32586   5.464   5.262   2.247  0.1999 -0.8906 -0.6836
10379SOL    HW132587   5.473   5.265   2.342 -1.8958  0.8643 -0.4387
10379SOL    HW232588   5.550   5.236   2.215  1.4380  0.0263  1.6309
10380SOL     OW32589   0.160   4.979   5.536 -0.0583 -0.1351  0.4367
10380SOL    HW132590   0.207   4.967   5.618 -0.8980  0.1948  0.9757
10380SOL    HW232591   0.176   4.898   5.487  2.1605  0.5008  0.0160
10381SOL     OW32592   6.189   4.728   4.388 -0.3364  0.2761  0.5253
10381SOL    HW132593   6.230   4.654   4.343  1.4063  1.1892  0.4927
10381SOL    HW232594   6.218   4.720   4.479 -0.3285  0.7670  0.5701
10382SOL     OW32595   6.405   1.356   4.876  0.0169 -0.0870  0.5591
10382SOL    HW132596   6.471   1.422   4.899 -0.4946  0.5760  0.1725
10382SOL    HW232597   6.325   1.386   4.918 -1.0079  1.2842 -2.1038
10383SOL     OW32598   1.037   5.433   3.773 -0.2895 -0.2859 -1.2676
10383SOL    HW132599   1.119   5.387   3.792 -0.2365  0.0143 -0.7618
10383SOL    HW232600   1.062   5.525   3.769 -0.6300 -0.1818 -0.9760
10384SOL     OW32601   4.183   5.967   3.407 -0.2959  0.0276 -0.1518
10384SOL    HW132602   4.235   5.898   3.448 -1.0961 -1.6707 -1.8548
10384SOL    HW232603   4.237   6.045   3.415  0.5353 -0.6914  2.0735
10385SOL     OW32604   4.280   1.705   7.109 -0.2045  0.3688 -0.5118
10385SOL    HW132605   4.285   1.633   7.172  0.2400  0.8726  0.0369
10385SOL    HW232606   4.219   1.767   7.149 -1.3633 -0.1364 -1.4446
10386SOL     OW32607   4.426   6.189   3.843  0.7948 -0.4419  0.1906
10386SOL    HW132608   4.482   6.115   3.821  0.3657 -0.6361 -0.2574
10386SOL    HW232609   4.432   6.195   3.938  1.0502 -0.8807  0.2073
10387SOL     OW32610   1.410   6.316   1.751 -0.7054 -0.1357  0.1227
10387SOL    HW132611   1.361   6.234   1.739  0.6534 -0.9160 -0.3674
10387SOL    HW232612   1.455   6.329   1.667  0.4856  0.1410  0.7729
10388SOL     OW32613   3.841   5.129   6.670  0.4609 -0.5230 -0.8855
10388SOL    HW132614   3.806   5.166   6.589  0.4674  0.7450 -0.3262
10388SOL    HW232615   3.922   5.178   6.686  0.4615 -0.7587 -0.1122
10389SOL     OW32616   0.759   4.550   1.730 -0.3901 -0.1028  0.1385
10389SOL    HW132617   0.711   4.468   1.743 -0.5866 -0.3106 -1.6593
10389SOL    HW232618   0.847   4.523   1.705 -0.2810  0.2444  0.1441
10390SOL     OW32619   6.404   4.378   4.323 -0.5347  1.0835  0.1847
10390SOL    HW132620   6.452   4.344   4.248 -0.0892  0.6625  0.6558
10390SOL    HW232621   6.376   4.466   4.296 -1.6399  0.3864 -1.0227
10391SOL     OW32622   6.559   4.326   3.304  0.3002 -0.3862 -0.1264
10391SOL    HW132623   6.632   4.314   3.244 -0.6408  0.3078 -1.4503
10391SOL    HW232624   6.549   4.240   3.346  1.2378 -0.7671 -0.6470
10392SOL     OW32625   3.901   5.756   0.442 -0.2532  0.1003 -0.6711
10392SOL    HW132626   3.880   5.720   0.356  1.3735 -0.6764 -0.7760
10392SOL    HW232627   3.963   5.694   0.480 -2.2102 -0.5152  1.8165
10393SOL     OW32628   0.878   5.123   5.989 -0.0395 -0.0291  0.1019
10393SOL    HW132629   0.942   5.093   5.924 -0.2919 -0.7151  0.1685
10393SOL    HW232630   0.907   5.082   6.071  1.2698  2.1388  0.8213
10394SOL     OW32631   2.460   1.858   4.668 -0.5919 -0.1862 -0.3369
10394SOL    HW132632   2.469   1.854   4.573 -0.1881  1.1241 -0.3646
10394SOL    HW232633   2.377   1.902   4.683 -1.3103 -1.5659 -0.0525
10395SOL     OW32634   0.163   2.467   0.406  0.6632 -0.5203 -0.2663
10395SOL    HW132635   0.206   2.460   0.491 -1.0444  0.4581  0.7386
10395SOL    HW232636   0.105   2.391   0.401  0.1512 -0.1391 -0.1820
10396SOL     OW32637   2.285   6.067   3.185 -0.0443 -0.3268 -0.4820
10396SOL    HW132638   2.378   6.057   3.205 -0.0273 -1.0542 -0.8872
10396SOL    HW232639   2.257   6.144   3.236  1.2240  1.1137 -1.8694
10397SOL     OW32640   4.475   3.432   6.552 -0.1705 -0.7897  0.0393
10397SOL    HW132641   4.569   3.419   6.538 -0.2925 -2.1671  0.3895
10397SOL    HW232642   4.460   3.409   6.643 -0.5974  1.1313  0.5171
10398SOL     OW32643   2.323   3.658   2.327  0.0379  0.4666 -0.8176
10398SOL    HW132644   2.329   3.732   2.387 -0.5250  0.8844 -1.2660
10398SOL    HW232645   2.319   3.581   2.384 -0.6676  0.8693 -0.3149
10399SOL     OW32646   7.112   0.518   2.473  0.3128 -0.4586  0.0776
10399SOL    HW132647   7.155   0.486   2.393  0.6251  0.4630 -0.1331
10399SOL    HW232648   7.020   0.529   2.448  0.2841 -0.8014  0.0326
10400SOL     OW32649   1.873   5.542   1.161  0.2583 -0.0066  0.3640
10400SOL    HW132650   1.943   5.590   1.116 -0.8930 -0.4141 -1.9779
10400SOL    HW232651   1.918   5.469   1.203  1.2195 -0.5455 -1.4972
10401SOL     OW32652   6.328   6.343   2.120  0.0898 -0.5856 -0.4605
10401SOL    HW132653   6.312   6.400   2.195  0.3372 -2.3330  1.0128
10401SOL    HW232654   6.264   6.370   2.054 -0.6890  0.4703  0.6883
10402SOL     OW32655   4.514   0.277   5.479  0.7054  0.0905  0.5899
10402SOL    HW132656   4.451   0.207   5.499  0.0549  0.5834  0.3208
10402SOL    HW232657   4.587   0.233   5.437 -0.0390 -0.3398 -0.2802
10403SOL     OW32658   5.791   6.907   4.935  0.0043  0.0073  0.0252
10403SOL    HW132659   5.698   6.909   4.915  0.4332 -0.1756 -2.2383
10403SOL    HW232660   5.795   6.881   5.027 -2.1131 -3.3533 -0.6586
10404SOL     OW32661   6.679   1.147   0.614  0.0088 -0.6028 -0.2701
10404SOL    HW132662   6.739   1.092   0.665 -0.2062  0.1014  0.7731
10404SOL    HW232663   6.628   1.085   0.563  1.0915 -1.2591 -0.5899
10405SOL     OW32664   4.009   4.363   0.445 -0.4716 -0.0078 -0.0120
10405SOL    HW132665   3.992   4.455   0.426  0.4882  0.2637  0.3929
10405SOL    HW232666   4.061   4.364   0.526 -2.4642 -1.0125  1.3591
10406SOL     OW32667   3.626   6.494   6.175  0.2143 -0.3553 -0.1610
10406SOL    HW132668   3.667   6.475   6.259 -0.5860 -2.1999 -0.1621
10406SOL    HW232669   3.541   6.532   6.197  0.2023 -0.3965 -0.1364
10407SOL     OW32670   2.900   0.390   5.479  0.0033  0.6514  0.3167
10407SOL    HW132671   2.812   0.377   5.513  0.5331  0.6426  1.7207
10407SOL    HW232672   2.945   0.307   5.495 -0.2219 -0.0179 -2.0768
10408SOL     OW32673   6.201   3.476   1.582 -0.3888  0.0145 -0.4137
10408SOL    HW132674   6.201   3.448   1.491  0.2370  0.4348 -0.5489
10408SOL    HW232675   6.167   3.565   1.581 -0.0295  0.1569 -0.2883
10409SOL     OW32676   4.831   5.129   2.521 -0.2037 -0.3334  0.8588
10409SOL    HW132677   4.759   5.183   2.488  0.4807  0.2933  0.3513
10409SOL    HW232678   4.789   5.067   2.581 -1.2189 -0.2939  0.2059
10410SOL     OW32679   4.994   1.145   2.542  0.2304 -0.0326  0.2894
10410SOL    HW132680   4.899   1.136   2.547  0.2851 -1.4916 -0.8001
10410SOL    HW232681   5.020   1.165   2.632 -1.0655  0.0155  0.6817
10411SOL     OW32682   3.426   2.594   3.376  0.2180  0.0758 -0.3547
10411SOL    HW132683   3.374   2.641   3.442  1.8739  2.3464 -0.5257
10411SOL    HW232684   3.489   2.659   3.345  1.1567 -1.6684 -2.3640
10412SOL     OW32685   5.140   5.828   2.569  0.3349 -0.2024 -0.3316
10412SOL    HW132686   5.079   5.769   2.612 -0.7599  0.1110 -1.4134
10412SOL    HW232687   5.212   5.772   2.541  0.0719 -0.7460  0.0656
10413SOL     OW32688   6.561   4.407   3.604  0.7955  0.3388 -0.3644
10413SOL    HW132689   6.549   4.406   3.509  0.8267 -1.8666 -0.3957
10413SOL    HW232690   6.629   4.341   3.620  1.3128  1.1940  1.1452
10414SOL     OW32691   6.554   1.242   6.585 -0.2097 -0.0861 -0.3434
10414SOL    HW132692   6.544   1.148   6.599 -0.3862  0.0344  0.3312
10414SOL    HW232693   6.523   1.282   6.666 -2.2060  0.6610 -1.4127
10415SOL     OW32694   0.681   0.176   5.588 -0.0230 -0.3122  0.0262
10415SOL    HW132695   0.658   0.086   5.609 -1.1974 -0.2533 -0.8796
10415SOL    HW232696   0.645   0.228   5.660 -1.9308 -0.3205 -0.8774
10416SOL     OW32697   2.823   3.485   2.558  0.2082 -0.3716  0.3065
10416SOL    HW132698   2.900   3.469   2.504 -0.9610 -0.1993 -1.5111
10416SOL    HW232699   2.836   3.573   2.593  0.5065 -0.0231 -0.6293
10417SOL     OW32700   5.782   4.893   0.304  0.4268 -0.2381 -0.6443
10417SOL    HW132701   5.707   4.836   0.290  1.0072 -0.8269 -1.4835
10417SOL    HW232702   5.773   4.962   0.238  0.8092 -0.5226 -1.0030
10418SOL     OW32703   4.728   5.890   4.622 -0.3193  0.4888  0.3324
10418SOL    HW132704   4.798   5.955   4.626  0.1830 -0.0738  1.0671
10418SOL    HW232705   4.648   5.940   4.638 -0.1931  1.2683 -1.3198
10419SOL     OW32706   5.041   3.194   4.827 -0.2643  0.1654  0.6568
10419SOL    HW132707   4.997   3.239   4.899  1.0233 -0.8643  2.1739
10419SOL    HW232708   4.971   3.150   4.779 -1.1551  0.8507  1.2889
10420SOL     OW32709   2.580   4.212   0.602  0.6568 -0.2306 -0.0318
10420SOL    HW132710   2.583   4.161   0.521  0.1987  0.1489 -0.2926
10420SOL    HW232711   2.620   4.155   0.668  1.3175 -0.4216 -0.5858
10421SOL     OW32712   3.941   3.140   5.309  0.3138  0.1403 -0.1834
10421SOL    HW132713   3.934   3.234   5.324 -2.1337  0.0611 -0.3475
10421SOL    HW232714   3.889   3.101   5.379  1.8285 -1.1597  0.2680
10422SOL     OW32715   3.497   2.528   2.303 -0.0711 -0.2158 -0.2116
10422SOL    HW132716   3.459   2.567   2.225 -0.9439 -1.9633 -0.7044
10422SOL    HW232717   3.499   2.434   2.285 -0.5990 -0.7176  1.9743
10423SOL     OW32718   4.715   6.129   5.073  0.2159  0.5677  0.1541
10423SOL    HW132719   4.727   6.216   5.110 -1.0091 -0.0615  2.2319
10423SOL    HW232720   4.645   6.139   5.008 -1.2086  0.8681  1.6786
10424SOL     OW32721   1.540   3.113   5.802  0.1831  0.5980  0.2893
10424SOL    HW132722   1.489   3.073   5.732  0.0875  1.7037 -0.3005
10424SOL    HW232723   1.506   3.074   5.882 -0.8043  0.4782 -0.1759
10425SOL     OW32724   0.061   2.034   4.311  0.1624 -0.2516  0.0839
10425SOL    HW132725  -0.000   1.965   4.335  0.9433 -0.4757  1.5859
10425SOL    HW232726   0.013   2.115   4.326 -1.3350 -0.3658 -3.2522
10426SOL     OW32727   0.849   6.160   6.637 -0.2730 -0.1170  0.3281
10426SOL    HW132728   0.884   6.074   6.614 -1.7681 -0.9671  1.0194
10426SOL    HW232729   0.793   6.143   6.713 -0.5674  1.4758  0.4990
10427SOL     OW32730   2.440   6.237   4.191 -0.3074 -0.2738 -0.1745
10427SOL    HW132731   2.408   6.256   4.279 -0.1750 -2.7964  0.4925
10427SOL    HW232732   2.515   6.179   4.205 -0.2322 -0.6660 -1.9614
10428SOL     OW32733   2.761   4.569   3.704  0.9310  0.2674 -0.1034
10428SOL    HW132734   2.729   4.489   3.746  0.6340  0.6312  0.3786
10428SOL    HW232735   2.697   4.589   3.636  1.8971 -0.8353 -1.3785
10429SOL     OW32736   6.757   2.419   5.933 -0.3048 -0.2047 -0.2650
10429SOL    HW132737   6.736   2.474   5.858 -2.0482 -0.8494 -0.3099
10429SOL    HW232738   6.755   2.329   5.899 -3.6349 -0.7440  0.9033
10430SOL     OW32739   5.488   6.982   0.335  0.0148 -0.3678  0.8942
10430SOL    HW132740   5.483   6.944   0.248 -0.9235  0.0814  0.7302
10430SOL    HW232741   5.476   7.076   0.321  0.2718 -0.2437  1.4667
10431SOL     OW32742   2.151   4.618   0.901 -0.3960 -0.4789 -0.4756
10431SOL    HW132743   2.130   4.703   0.864  1.1212  0.1265 -0.0310
10431SOL    HW232744   2.239   4.598   0.868  0.0236 -1.0086  0.8742
10432SOL     OW32745   2.581   6.415   3.788  0.1071  0.2523 -0.3156
10432SOL    HW132746   2.603   6.347   3.724 -0.7592 -0.8659  0.5409
10432SOL    HW232747   2.652   6.411   3.852 -0.5656 -0.7304  0.3993
10433SOL     OW32748   4.451   2.551   5.582  0.1137 -0.8251  0.5050
10433SOL    HW132749   4.398   2.483   5.624 -1.7783  1.6192  2.3358
10433SOL    HW232750   4.538   2.542   5.623 -0.3005 -1.6767  1.2408
10434SOL     OW32751   1.823   3.250   4.544 -0.3292  0.1678 -0.2551
10434SOL    HW132752   1.808   3.258   4.638 -0.1128 -1.1909 -0.0751
10434SOL    HW232753   1.914   3.277   4.532 -0.7513  1.6491 -0.2987
10435SOL     OW32754   0.167   3.168   5.932  0.0176 -0.1008  0.0367
10435SOL    HW132755   0.163   3.233   5.862  0.5629 -0.2220 -0.1073
10435SOL    HW232756   0.256   3.134   5.929  0.0147 -0.1908  0.7153
10436SOL     OW32757   6.131   4.904   0.781  0.2414  0.2737 -0.8571
10436SOL    HW132758   6.047   4.886   0.740  0.0295 -0.1745 -0.2324
10436SOL    HW232759   6.194   4.848   0.734  0.0343 -0.0963 -0.6909
10437SOL     OW32760   3.389   6.460   5.921  0.2190 -0.3774 -0.0573
10437SOL    HW132761   3.345   6.394   5.974 -0.6698  0.1632 -0.0954
10437SOL    HW232762   3.384   6.540   5.974  0.9642 -0.2545 -0.1637
10438SOL     OW32763   2.863   1.674   6.979 -0.0224  0.0617 -0.4707
10438SOL    HW132764   2.954   1.702   6.972 -0.2583  0.7360 -0.9877
10438SOL    HW232765   2.839   1.646   6.890 -0.7394  1.2656 -0.6792
10439SOL     OW32766   3.789   0.642   6.838  0.6027 -0.6291  0.2437
10439SOL    HW132767   3.832   0.595   6.909 -0.5702 -0.5528  1.0291
10439SOL    HW232768   3.792   0.734   6.865  0.5191 -0.5552  0.0022
10440SOL     OW32769   3.411   2.542   2.830  0.0986  0.0724  0.4564
10440SOL    HW132770   3.317   2.530   2.816  0.5065 -2.6268 -0.4831
10440SOL    HW232771   3.431   2.488   2.906  1.0535 -0.1841  0.0334
10441SOL     OW32772   7.086   6.443   0.251  0.1850  0.4392  0.5778
10441SOL    HW132773   7.164   6.464   0.200 -0.6072  0.2646 -0.7363
10441SOL    HW232774   7.041   6.527   0.261  0.9631  0.7104  2.1215
10442SOL     OW32775   2.285   5.150   3.414 -0.2149  0.6814 -0.3626
10442SOL    HW132776   2.210   5.091   3.424 -0.8005  1.4165 -0.3288
10442SOL    HW232777   2.359   5.101   3.449 -0.3167 -0.7745 -2.0103
10443SOL     OW32778   5.935   4.547   4.372 -0.0853  0.4653 -0.4143
10443SOL    HW132779   5.961   4.485   4.304  0.4130 -0.7065  0.8049
10443SOL    HW232780   5.840   4.533   4.381 -0.2509  1.0089 -1.2196
10444SOL     OW32781   2.364   6.796   2.096 -0.7981  0.1030  0.3204
10444SOL    HW132782   2.372   6.843   2.013 -0.9796 -0.1168  0.1784
10444SOL    HW232783   2.427   6.840   2.154 -0.7490  0.3272  0.1011
10445SOL     OW32784   5.925   1.926   6.575 -0.7108 -0.1580 -0.1538
10445SOL    HW132785   5.852   1.985   6.555 -0.6480 -0.6749 -2.1022
10445SOL    HW232786   5.924   1.861   6.505 -0.2276 -1.9823  1.4457
10446SOL     OW32787   4.609   0.571   3.741 -0.6862  0.3457  0.3270
10446SOL    HW132788   4.694   0.591   3.701 -0.0322 -0.9204  1.0077
10446SOL    HW232789   4.545   0.594   3.674  0.0634  2.6628  0.3132
10447SOL     OW32790   5.752   5.488   2.338  0.3472 -0.2976  0.4249
10447SOL    HW132791   5.752   5.393   2.330 -1.4107 -0.3393  0.4361
10447SOL    HW232792   5.836   5.515   2.301 -0.0452 -1.7091 -1.7106
10448SOL     OW32793   4.732   2.083   2.510  0.1997  0.8338  0.1055
10448SOL    HW132794   4.678   2.064   2.433  0.1580  0.3304  0.2591
10448SOL    HW232795   4.678   2.140   2.564 -0.8729 -1.0154  1.0748
10449SOL     OW32796   5.658   6.534   6.733 -0.3629  0.4370  0.1510
10449SOL    HW132797   5.628   6.459   6.785  0.5506  1.2265  1.9218
10449SOL    HW232798   5.737   6.564   6.778 -1.4813  3.3686  0.4085
10450SOL     OW32799   2.395   0.508   2.910  0.0734  0.1969  0.0978
10450SOL    HW132800   2.451   0.450   2.858 -1.8205 -1.1286 -0.6085
10450SOL    HW232801   2.355   0.450   2.975 -1.1796  0.8689 -0.0352
10451SOL     OW32802   0.401   3.716   3.031 -0.0181 -0.5034 -0.1612
10451SOL    HW132803   0.348   3.636   3.033  2.1960 -2.0350  0.5299
10451SOL    HW232804   0.471   3.697   2.968  0.6537  0.8230  0.1527
10452SOL     OW32805   1.744   4.131   2.726  0.5046 -0.3158  0.0454
10452SOL    HW132806   1.809   4.128   2.656  0.7645  0.8991  0.2090
10452SOL    HW232807   1.665   4.164   2.684  0.6976  0.5383  0.3377
10453SOL     OW32808   7.068   0.085   2.403  0.2583  1.1474  0.2954
10453SOL    HW132809   7.042   0.002   2.443  0.0372  0.1265 -1.8508
10453SOL    HW232810   7.005   0.148   2.438 -1.6246 -0.2207 -0.4251
10454SOL     OW32811   4.614   6.033   3.273 -0.0715 -0.2335 -0.3394
10454SOL    HW132812   4.578   6.011   3.187 -0.1395 -2.8354  0.2818
10454SOL    HW232813   4.709   6.025   3.261 -0.1021 -1.0327 -0.0779
10455SOL     OW32814   4.492   1.578   6.334 -0.4056 -0.5071  0.4841
10455SOL    HW132815   4.516   1.532   6.414  2.7355  1.9157  1.1373
10455SOL    HW232816   4.542   1.534   6.265  0.3179  0.1159  0.6100
10456SOL     OW32817   4.051   0.179   3.349 -0.2471 -0.1440  0.0772
10456SOL    HW132818   3.997   0.171   3.427 -0.4226  2.1405  0.2618
10456SOL    HW232819   4.020   0.110   3.290 -0.9745 -1.0692  1.5100
10457SOL     OW32820   5.286   2.683   1.292 -0.1797 -0.2594 -0.2009
10457SOL    HW132821   5.357   2.664   1.353  1.2570 -1.7391 -2.1872
10457SOL    HW232822   5.207   2.651   1.335  0.8619 -1.8374  0.6298
10458SOL     OW32823   4.053   1.808   3.545 -0.5534 -0.1698  0.3604
10458SOL    HW132824   4.092   1.894   3.553 -0.5793 -0.0633 -0.5456
10458SOL    HW232825   3.975   1.811   3.600 -0.7229  0.4882  0.0865
10459SOL     OW32826   4.263   3.711   6.797  0.1351  0.1860 -0.9564
10459SOL    HW132827   4.210   3.633   6.780 -0.2803  0.2327  0.0850
10459SOL    HW232828   4.320   3.718   6.720  1.4965 -2.2067 -0.2940
10460SOL     OW32829   0.300   1.617   5.732 -0.7241  0.4057 -0.2276
10460SOL    HW132830   0.318   1.629   5.825 -0.7935  0.1111 -0.1736
10460SOL    HW232831   0.286   1.522   5.723 -0.0018  0.3373 -0.6647
10461SOL     OW32832   6.186   3.732   4.441  0.2862 -0.2115 -0.1304
10461SOL    HW132833   6.163   3.817   4.404  0.4348  0.4815  1.3407
10461SOL    HW232834   6.186   3.745   4.535  1.9632 -1.4132  0.0866
10462SOL     OW32835   1.984   0.526   6.456 -0.1582 -0.8800  0.5304
10462SOL    HW132836   1.969   0.443   6.501 -2.9858  0.4105  2.2573
10462SOL    HW232837   1.985   0.592   6.526  0.4518  0.7146 -0.8982
10463SOL     OW32838   2.599   0.512   0.649  0.2792  0.3728  0.0974
10463SOL    HW132839   2.658   0.588   0.646  0.5047  0.1572 -1.4662
10463SOL    HW232840   2.576   0.495   0.558  1.4249 -2.3410  0.2118
10464SOL     OW32841   5.676   3.971   6.625  0.9226  0.1703 -0.2977
10464SOL    HW132842   5.770   3.961   6.640  0.7367 -0.1731  0.6596
10464SOL    HW232843   5.636   3.894   6.666  0.0439  1.3847  1.2400
10465SOL     OW32844   0.154   0.817   2.289 -0.5091 -0.1502 -0.4239
10465SOL    HW132845   0.212   0.743   2.309 -0.1485  0.3367  0.3837
10465SOL    HW232846   0.081   0.778   2.240 -0.9089 -1.2547  0.9809
10466SOL     OW32847   6.914   4.313   0.391 -0.2798 -0.7471 -0.3321
10466SOL    HW132848   6.851   4.307   0.462 -0.8771 -1.7916 -0.9272
10466SOL    HW232849   6.999   4.315   0.435 -0.6841  0.5109  0.4693
10467SOL     OW32850   3.917   1.719   7.036  0.3061  0.6515  0.1466
10467SOL    HW132851   3.986   1.735   7.101  0.4948  2.3861 -0.4163
10467SOL    HW232852   3.866   1.647   7.072  1.7504  0.0685  1.1157
10468SOL     OW32853   2.675   4.711   4.938  0.2665  0.7931 -0.1901
10468SOL    HW132854   2.752   4.769   4.939  0.0994  1.0900 -1.7256
10468SOL    HW232855   2.694   4.649   4.868 -0.9086  0.9028 -0.6160
10469SOL     OW32856   0.685   0.055   6.802  0.5444 -0.4141 -0.2416
10469SOL    HW132857   0.700   0.141   6.762 -0.5830  0.3976  1.0032
10469SOL    HW232858   0.623   0.012   6.744  1.5812 -0.6678 -1.2039
10470SOL     OW32859   2.149   4.588   1.197 -0.1320 -0.0417  0.5418
10470SOL    HW132860   2.164   4.683   1.194  0.1555 -0.1074 -0.5918
10470SOL    HW232861   2.205   4.553   1.127 -1.4516 -0.8774 -0.1377
10471SOL     OW32862   2.800   0.750   2.224  0.1945  0.2805  0.0016
10471SOL    HW132863   2.825   0.823   2.167  1.1900  0.6544  0.8784
10471SOL    HW232864   2.749   0.790   2.294  1.7375  0.3687  1.1357
10472SOL     OW32865   6.637   0.781   6.097 -0.0072 -0.1727 -0.1783
10472SOL    HW132866   6.570   0.753   6.035 -0.5929 -1.4945  0.9930
10472SOL    HW232867   6.624   0.875   6.105 -1.5726 -0.3555 -0.1911
10473SOL     OW32868   3.011   4.752   6.814  0.2879  0.1422 -0.3367
10473SOL    HW132869   3.088   4.700   6.790  0.6829 -0.2747  1.6643
10473SOL    HW232870   2.937   4.700   6.781  0.8099  0.3727 -1.9622
10474SOL     OW32871   2.177   0.317   5.811  0.0501 -0.2732 -0.2569
10474SOL    HW132872   2.148   0.397   5.855 -1.6262 -1.1422  0.3083
10474SOL    HW232873   2.145   0.325   5.722  1.6455  0.5518 -0.7981
10475SOL     OW32874   0.062   1.785   5.621 -0.1718 -0.0603  0.4378
10475SOL    HW132875   0.116   1.728   5.567  0.2056  2.2995 -1.8809
10475SOL    HW232876   0.117   1.807   5.696  0.5520 -0.8225  0.1474
10476SOL     OW32877   1.500   0.060   1.309  0.8221 -0.2852 -0.0531
10476SOL    HW132878   1.447  -0.019   1.304 -0.0979  0.3672 -1.6514
10476SOL    HW232879   1.577   0.035   1.359 -0.3133 -1.6684  1.0909
10477SOL     OW32880   6.342   7.135   2.976  0.8366  0.5088  0.1927
10477SOL    HW132881   6.308   7.202   3.036 -0.2267 -0.1948  0.4038
10477SOL    HW232882   6.286   7.141   2.899  0.7358 -0.1224  0.2101
10478SOL     OW32883   2.385   4.534   2.102  0.2439  0.0790 -0.0377
10478SOL    HW132884   2.290   4.548   2.109  0.4615  1.0522  1.5950
10478SOL    HW232885   2.413   4.596   2.035 -0.3982 -1.0362 -1.3907
10479SOL     OW32886   5.891   5.914   6.977  0.4282  0.5611  0.6111
10479SOL    HW132887   5.936   5.927   7.061  1.0497  0.7961  0.2567
10479SOL    HW232888   5.961   5.890   6.916 -0.1357 -0.4018  0.3340
10480SOL     OW32889   3.019   6.278   0.013  0.1833  0.4579  0.7995
10480SOL    HW132890   3.051   6.195  -0.022 -1.6086 -0.1920  0.6171
10480SOL    HW232891   2.972   6.319  -0.060 -0.4965  0.7856  1.4095
10481SOL     OW32892   6.762   1.906   6.612  0.1091 -0.3846 -0.0929
10481SOL    HW132893   6.809   1.888   6.693  0.1435 -0.2140 -0.0740
10481SOL    HW232894   6.830   1.905   6.544  0.3977  1.2774  0.1122
10482SOL     OW32895   5.522   4.381   6.511 -0.2664 -0.0350 -0.1241
10482SOL    HW132896   5.494   4.317   6.576 -1.3746 -0.0395 -0.5837
10482SOL    HW232897   5.509   4.466   6.553  2.7887 -0.0432  1.1352
10483SOL     OW32898   3.908   0.784   1.502 -0.6071 -0.0541  0.4481
10483SOL    HW132899   3.845   0.714   1.517 -2.4400  1.0888 -1.3895
10483SOL    HW232900   3.870   0.835   1.431  0.5146  2.9442  1.8313
10484SOL     OW32901   0.382   4.187   5.392 -0.3730  0.6644  0.0607
10484SOL    HW132902   0.413   4.157   5.477  0.7595 -2.9575 -1.4237
10484SOL    HW232903   0.288   4.166   5.392 -0.5997  1.6037  0.7042
10485SOL     OW32904   1.999   2.353   1.634 -0.6762  0.1264 -0.6099
10485SOL    HW132905   2.029   2.262   1.632  1.3447  0.7333 -0.7708
10485SOL    HW232906   1.981   2.371   1.726  1.5317  0.2757 -0.1374
10486SOL     OW32907   2.623   6.519   2.214  0.0672  0.5780  0.4114
10486SOL    HW132908   2.529   6.501   2.200  0.3366  0.5106 -1.6158
10486SOL    HW232909   2.659   6.524   2.126  2.0256  0.4479  1.1716
10487SOL     OW32910   2.035   4.309   2.732 -0.4012 -0.6365 -0.0102
10487SOL    HW132911   2.111   4.364   2.712 -0.0097 -1.5908 -1.3118
10487SOL    HW232912   2.073   4.229   2.770 -0.9929  0.1343  2.3897
10488SOL     OW32913   0.909   1.040   4.751 -0.9184 -0.4178  0.2229
10488SOL    HW132914   0.993   1.000   4.727  0.3381  0.5395  2.6418
10488SOL    HW232915   0.895   1.108   4.685  1.4337  0.9296  0.9658
10489SOL     OW32916   2.180   3.160   0.308  0.1312 -0.3523 -0.3729
10489SOL    HW132917   2.200   3.088   0.367 -0.9144 -1.3318 -1.1700
10489SOL    HW232918   2.145   3.229   0.365 -1.1672 -1.3944  0.1450
10490SOL     OW32919   6.899   2.174   2.311 -0.2660  0.6578 -0.0803
10490SOL    HW132920   6.966   2.189   2.377 -1.9857 -1.6239  2.3794
10490SOL    HW232921   6.932   2.101   2.259 -0.4067  0.1847  0.4928
10491SOL     OW32922   6.661   6.210   4.062 -0.3428  0.1827  0.4387
10491SOL    HW132923   6.587   6.255   4.103  0.0103 -0.6720  2.1321
10491SOL    HW232924   6.731   6.215   4.127 -0.7799 -4.1349  1.5701
10492SOL     OW32925   0.011   1.794   2.353  0.1037 -0.0674  0.3482
10492SOL    HW132926  -0.084   1.804   2.348  0.1666  0.1788 -0.5642
10492SOL    HW232927   0.025   1.738   2.429 -0.8565 -1.2141 -0.2678
10493SOL     OW32928   5.087   1.169   2.800 -0.1726  0.1041  0.0427
10493SOL    HW132929   5.174   1.167   2.841  0.0190  0.7115 -0.3267
10493SOL    HW232930   5.032   1.216   2.863 -0.1463  0.0451  0.1098
10494SOL     OW32931   3.549   2.166   1.905  0.2829  0.4841 -0.5075
10494SOL    HW132932   3.466   2.204   1.935 -1.2179 -1.0036 -2.4525
10494SOL    HW232933   3.529   2.073   1.893  3.0150 -0.4722  1.4131
10495SOL     OW32934   4.577   5.520   6.542  0.1991  0.3085  0.3803
10495SOL    HW132935   4.585   5.582   6.615  0.6667 -1.9726  2.4116
10495SOL    HW232936   4.636   5.449   6.566  0.2256 -0.6187 -2.2066
10496SOL     OW32937   2.304   0.870   0.911 -0.3831 -0.6871 -0.2202
10496SOL    HW132938   2.319   0.903   0.823 -2.3835  1.9911  0.3150
10496SOL    HW232939   2.229   0.920   0.943 -0.7455 -2.6999  2.4378
10497SOL     OW32940   4.375   3.994   3.292  0.4144  0.0722  0.2261
10497SOL    HW132941   4.289   3.957   3.272  0.2259  0.8915 -0.5149
10497SOL    HW232942   4.410   3.937   3.361 -0.7849 -0.1706  0.6624
10498SOL     OW32943   0.537   3.623   2.838  0.2944 -0.1007  0.1314
10498SOL    HW132944   0.565   3.544   2.884  0.8772 -1.0044 -1.6808
10498SOL    HW232945   0.577   3.616   2.752 -0.8168  1.4854 -0.5610
10499SOL     OW32946   0.035   1.624   2.595  0.0816  0.4884 -0.8724
10499SOL    HW132947  -0.015   1.567   2.653 -0.1888  0.7565 -0.8437
10499SOL    HW232948   0.099   1.667   2.652  0.4319  0.0529 -0.9294
10500SOL     OW32949   6.374   0.082   2.364 -0.6735 -0.2385  0.7325
10500SOL    HW132950   6.294   0.132   2.380 -1.8982 -2.3912  1.7744
10500SOL    HW232951   6.355  -0.005   2.399  1.1931 -1.5868 -1.3718
10501SOL     OW32952   0.623   3.054   5.794 -0.1911 -0.0057  0.2798
10501SOL    HW132953   0.577   3.020   5.717 -0.3470  0.0348  0.3531
10501SOL    HW232954   0.686   2.985   5.817  0.3993  0.3184 -0.3471
10502SOL     OW32955   6.932   0.607   6.499  0.2701  0.1260  0.5258
10502SOL    HW132956   6.954   0.678   6.439  1.4559 -0.1530  0.6039
10502SOL    HW232957   6.857   0.564   6.459 -1.4636  2.2933  1.1955
10503SOL     OW32958   4.691   2.907   3.639 -0.2184 -0.0507 -0.0892
10503SOL    HW132959   4.751   2.888   3.566 -1.2020 -0.7343 -0.7471
10503SOL    HW232960   4.699   2.832   3.697  0.3358  0.3528  0.3712
10504SOL     OW32961   4.283   5.903   2.857  0.3102 -0.5208  0.0239
10504SOL    HW132962   4.292   5.893   2.952  1.6206 -0.5417 -0.0885
10504SOL    HW232963   4.273   5.997   2.843 -0.2240 -0.5482  0.1998
10505SOL     OW32964   6.401   5.480   0.598 -0.5126 -0.5143  0.0355
10505SOL    HW132965   6.403   5.569   0.633 -0.6238 -0.2376 -0.6480
10505SOL    HW232966   6.312   5.469   0.565 -0.0794 -0.3130 -1.2842
10506SOL     OW32967   6.103   0.175   4.919  0.3175  0.4157 -0.0340
10506SOL    HW132968   6.077   0.263   4.945 -0.5195  0.3313 -0.5210
10506SOL    HW232969   6.178   0.187   4.862  1.2763  0.6905  1.2526
10507SOL     OW32970   4.411   6.636   1.264 -0.0412 -0.4142 -0.5816
10507SOL    HW132971   4.505   6.616   1.262  0.0026 -0.2463 -3.3496
10507SOL    HW232972   4.375   6.592   1.187 -2.2978 -0.6025  0.4971
10508SOL     OW32973   0.366   3.821   1.875 -0.3374 -0.5423  0.1672
10508SOL    HW132974   0.343   3.857   1.789 -0.5655 -1.3950 -0.1321
10508SOL    HW232975   0.292   3.764   1.897 -1.2179  1.1429  1.8092
10509SOL     OW32976   2.251   2.523   0.682 -0.1651  0.1910 -0.5675
10509SOL    HW132977   2.170   2.498   0.638 -0.7323 -1.7831  1.4475
10509SOL    HW232978   2.303   2.443   0.682  2.3882  1.6614 -2.8136
10510SOL     OW32979   2.437   0.069   7.136  0.3251 -0.3730 -0.2611
10510SOL    HW132980   2.405   0.003   7.074 -0.1634 -0.1410 -0.2596
10510SOL    HW232981   2.532   0.060   7.134  0.2410 -2.1610  0.9071
10511SOL     OW32982   1.507   3.080   2.342 -0.2487 -0.3642  0.2041
10511SOL    HW132983   1.445   3.125   2.400 -0.0142  0.1268  0.0798
10511SOL    HW232984   1.545   3.150   2.290  0.5464 -0.6444  0.4033
10512SOL     OW32985   7.031   1.788   6.132 -0.1145  0.9171  0.1051
10512SOL    HW132986   6.936   1.795   6.120 -0.3076 -0.3493  0.6959
10512SOL    HW232987   7.045   1.697   6.160  1.3886  0.7796 -0.9721
10513SOL     OW32988   6.024   4.224   0.090  0.1445  0.0418 -0.2527
10513SOL    HW132989   6.043   4.132   0.071 -0.0754  0.2518 -1.6361
10513SOL    HW232990   5.929   4.228   0.102  0.4455 -0.4687  3.4658
10514SOL     OW32991   7.117   6.740   1.184  0.2126 -0.4653 -0.6099
10514SOL    HW132992   7.186   6.710   1.243  1.1223  0.4912 -1.1568
10514SOL    HW232993   7.140   6.831   1.164 -0.8827 -0.3159 -1.2838
10515SOL     OW32994   4.699   4.170   0.708 -0.1237  0.2555 -0.2204
10515SOL    HW132995   4.779   4.171   0.761 -0.3113  1.2418  0.0610
10515SOL    HW232996   4.712   4.098   0.647  0.4608 -0.3622  0.6127
10516SOL     OW32997   5.325   2.697   6.079  0.7091 -0.3010 -0.0152
10516SOL    HW132998   5.367   2.612   6.069  2.4301  0.3019  1.6401
10516SOL    HW232999   5.329   2.716   6.172 -1.3627  0.7906 -0.0774
10517SOL     OW33000   2.578   3.787   0.810  0.3883 -0.2387  0.1481
10517SOL    HW133001   2.603   3.756   0.723  0.6141  0.3212  0.0089
10517SOL    HW233002   2.647   3.754   0.868  0.5621 -0.0966  0.0220
10518SOL     OW33003   6.538   3.742   0.966  0.3467 -0.1100  0.2419
10518SOL    HW133004   6.616   3.741   0.910 -0.4603 -0.3093 -0.9220
10518SOL    HW233005   6.501   3.830   0.953  0.2776 -0.0762  0.6567
10519SOL     OW33006   6.817   4.566   5.763 -0.0612 -0.0125  0.5031
10519SOL    HW133007   6.808   4.659   5.743 -1.1493 -0.3356 -0.6616
10519SOL    HW233008   6.882   4.563   5.834 -1.0425  1.7339  1.5675
10520SOL     OW33009   7.028   5.716   3.699 -0.3035  0.2660 -0.1322
10520SOL    HW133010   7.110   5.757   3.671 -0.1782  0.8664  1.0659
10520SOL    HW233011   6.965   5.789   3.702 -0.5272  0.0529  0.3198
10521SOL     OW33012   0.897   2.825   3.013 -0.3585  0.2562 -0.0797
10521SOL    HW133013   0.953   2.812   2.937  2.1583  0.1984  1.6444
10521SOL    HW233014   0.924   2.910   3.048 -0.6808 -0.1874  1.3120
10522SOL     OW33015   3.477   4.558   0.177 -1.2118  0.2680 -0.2612
10522SOL    HW133016   3.462   4.466   0.198  1.6979 -0.5652 -1.3888
10522SOL    HW233017   3.410   4.579   0.112 -2.3598 -0.8044  0.5283
10523SOL     OW33018   3.306   5.981   0.943 -0.0674 -0.3758 -0.0751
10523SOL    HW133019   3.294   6.011   1.034 -1.1747 -0.1071 -0.2930
10523SOL    HW233020   3.395   6.008   0.920 -0.9458  2.7715 -0.2472
10524SOL     OW33021   0.027   3.568   0.401  0.9493  0.2958 -0.3728
10524SOL    HW133022   0.043   3.621   0.323 -1.7788  1.3877 -0.2868
10524SOL    HW233023  -0.001   3.484   0.367  1.9795 -0.0134 -0.5112
10525SOL     OW33024   5.023   4.871   1.290 -0.0355 -0.2006 -0.2638
10525SOL    HW133025   5.073   4.952   1.289  0.2727 -0.3848 -0.2143
10525SOL    HW233026   4.989   4.862   1.201  1.0599 -0.6982 -0.6505
10526SOL     OW33027   5.230   1.253   5.821  0.1549  0.0426  0.0198
10526SOL    HW133028   5.164   1.231   5.886  1.5954  0.4335  1.7084
10526SOL    HW233029   5.294   1.182   5.827  0.7213  0.5127 -0.3442
10527SOL     OW33030   6.223   5.224   6.001 -0.0341 -0.0808 -0.2052
10527SOL    HW133031   6.199   5.136   5.971  2.8310 -1.3390  0.8207
10527SOL    HW233032   6.241   5.213   6.094 -1.2955  2.0366  0.3386
10528SOL     OW33033   0.092   6.725   2.968 -0.2707 -0.1916  0.2789
10528SOL    HW133034   0.024   6.662   2.989  0.0821 -0.9195 -0.6999
10528SOL    HW233035   0.174   6.677   2.979  0.0196  0.2024 -0.1261
10529SOL     OW33036   3.933   0.495   5.588 -0.0867 -0.2678  0.0021
10529SOL    HW133037   3.985   0.457   5.518  1.3353 -0.9705  1.3578
10529SOL    HW233038   3.889   0.420   5.629  0.5443 -0.1292  0.9726
10530SOL     OW33039   1.403   2.667   4.985  0.0659 -0.7098  0.3365
10530SOL    HW133040   1.337   2.732   4.963  0.0707  0.6388  3.7483
10530SOL    HW233041   1.354   2.584   4.991 -0.5349 -0.4720 -0.8752
10531SOL     OW33042   1.326   4.311   1.604  0.9338  0.2706 -0.4490
10531SOL    HW133043   1.296   4.251   1.672 -1.8843  0.9125 -0.9893
10531SOL    HW233044   1.337   4.257   1.526 -0.2248  0.1889 -0.5746
10532SOL     OW33045   0.831   1.547   3.491 -0.5066 -0.3201 -0.1818
10532SOL    HW133046   0.840   1.471   3.434 -0.6997  0.0037 -0.6534
10532SOL    HW233047   0.920   1.575   3.510 -0.4480 -0.1938 -0.6470
10533SOL     OW33048   1.157   2.602   1.003  0.5839  0.8904  0.2927
10533SOL    HW133049   1.157   2.669   1.072  0.3642 -0.8890  2.1479
10533SOL    HW233050   1.228   2.543   1.028 -0.8481 -0.9558  0.2627
10534SOL     OW33051   5.291   1.895   0.143  0.1017  0.4275  0.2968
10534SOL    HW133052   5.285   1.988   0.120 -1.0111  0.2260 -0.3220
10534SOL    HW233053   5.383   1.882   0.167  0.5829  1.3992 -0.8756
10535SOL     OW33054   6.916   0.325   2.813 -0.4321 -0.3683  0.2395
10535SOL    HW133055   6.984   0.379   2.774 -1.6552  1.0462 -0.0221
10535SOL    HW233056   6.961   0.272   2.879  0.6685  1.7447  1.2715
10536SOL     OW33057   5.393   5.058   3.551 -0.2258  0.3422  0.0623
10536SOL    HW133058   5.354   5.135   3.593 -2.2706 -1.2014  1.1684
10536SOL    HW233059   5.323   5.023   3.496  0.8157 -0.4871 -0.7705
10537SOL     OW33060   1.054   5.960   5.842  0.0222  0.1240  0.3977
10537SOL    HW133061   1.149   5.944   5.841 -0.0053 -0.1290  1.1757
10537SOL    HW233062   1.025   5.940   5.753  0.7439  0.4709  0.0759
10538SOL     OW33063   4.142   6.888   0.248  0.2334  0.1079 -0.5712
10538SOL    HW133064   4.128   6.982   0.260  0.6207  0.1760 -0.6488
10538SOL    HW233065   4.233   6.874   0.273  0.5836 -0.0174 -1.8241
10539SOL     OW33066   2.436   1.444   5.777 -0.2519  0.2749 -0.2686
10539SOL    HW133067   2.448   1.439   5.871 -0.3177  0.1241 -0.2671
10539SOL    HW233068   2.450   1.354   5.746 -1.5203  0.0491 -0.2419
10540SOL     OW33069   4.179   5.885   0.217  0.2810  0.0481  0.7014
10540SOL    HW133070   4.257   5.892   0.163  1.3909  1.7520  2.4136
10540SOL    HW233071   4.161   5.791   0.221  1.2632 -0.2490 -1.0362
10541SOL     OW33072   0.118   4.886   0.202 -0.7255  0.0315  0.7804
10541SOL    HW133073   0.159   4.830   0.268  1.5890  1.7256  0.9424
10541SOL    HW233074   0.151   4.974   0.223 -0.3426  0.7140 -2.3122
10542SOL     OW33075   2.397   0.924   0.637 -0.5113  0.3395 -0.2051
10542SOL    HW133076   2.378   0.987   0.568 -0.6166  0.6014  0.0570
10542SOL    HW233077   2.409   0.841   0.592  1.2315  0.8273 -0.7504
10543SOL     OW33078   0.419   3.840   5.120 -0.1829  0.1561 -0.5661
10543SOL    HW133079   0.481   3.911   5.138 -0.0885  0.3995 -1.7850
10543SOL    HW233080   0.474   3.763   5.103 -0.2743 -0.1038  0.2735
10544SOL     OW33081   4.812   0.181   2.543  0.2320 -0.7164 -0.6869
10544SOL    HW133082   4.789   0.095   2.576  0.7000 -0.3695  0.6155
10544SOL    HW233083   4.806   0.173   2.448 -0.0234 -2.0862 -0.5750
10545SOL     OW33084   3.068   0.907   5.457  0.4171  0.1985 -0.0801
10545SOL    HW133085   2.986   0.928   5.500  0.6777 -0.5242  0.7879
10545SOL    HW233086   3.131   0.893   5.528  0.5987 -2.0919 -0.6154
10546SOL     OW33087   0.488   3.902   2.200  0.3544 -0.3503 -0.3799
10546SOL    HW133088   0.468   3.847   2.125  1.1143 -0.4390 -0.5257
10546SOL    HW233089   0.535   3.845   2.261 -0.1683 -0.2537  0.1207
10547SOL     OW33090   2.205   5.710   3.065  0.2096 -0.1941  0.0378
10547SOL    HW133091   2.241   5.642   3.008  2.4424  1.7756 -1.0643
10547SOL    HW233092   2.187   5.783   3.006  4.3312  2.6258  1.8118
10548SOL     OW33093   5.016   6.625   4.403 -0.1226 -0.2781 -0.3743
10548SOL    HW133094   4.970   6.603   4.484  0.0004  0.9121  0.0385
10548SOL    HW233095   5.062   6.544   4.379  1.1218 -0.2313  1.6012
10549SOL     OW33096   6.793   3.146   3.455  0.1239  0.3644  0.1807
10549SOL    HW133097   6.862   3.203   3.490  2.4773 -1.1546 -1.7232
10549SOL    HW233098   6.825   3.057   3.470 -1.2117 -0.3787 -1.1747
10550SOL     OW33099   0.759   2.610   4.376 -0.1691 -0.4860 -0.4447
10550SOL    HW133100   0.719   2.528   4.345  0.1951 -1.1756  0.8171
10550SOL    HW233101   0.812   2.640   4.302 -2.0692 -0.1645 -1.7330
10551SOL     OW33102   3.150   6.761   4.023  0.4446 -0.0241  0.0903
10551SOL    HW133103   3.063   6.752   4.062  0.1115 -0.8771 -0.8043
10551SOL    HW233104   3.146   6.844   3.975 -0.2931 -0.6183 -0.9233
10552SOL     OW33105   2.372   6.449   0.248 -0.1013 -0.4520 -0.6477
10552SOL    HW133106   2.294   6.393   0.246  0.4292 -1.1764 -2.1985
10552SOL    HW233107   2.427   6.412   0.317 -1.2940  0.3728  0.8331
10553SOL     OW33108   0.631   5.671   4.245  0.3108 -0.3933  0.0916
10553SOL    HW133109   0.660   5.643   4.158  0.0828 -1.8404  0.4632
10553SOL    HW233110   0.536   5.665   4.242  0.2439  0.4838  0.1539
10554SOL     OW33111   0.658   7.094   5.730  0.2955  0.2639 -0.0239
10554SOL    HW133112   0.746   7.096   5.767  0.3957  3.2644 -0.1825
10554SOL    HW233113   0.663   7.028   5.661  1.9602 -0.7185  0.9617
10555SOL     OW33114   4.285   6.807   0.790  0.0659 -0.3503  0.0048
10555SOL    HW133115   4.254   6.895   0.767 -0.0974 -0.8771 -1.9546
10555SOL    HW233116   4.236   6.786   0.870 -0.1561  1.1830  0.3178
10556SOL     OW33117   7.094   0.384   6.189 -0.1984  0.2459  0.2362
10556SOL    HW133118   7.089   0.313   6.126 -0.4101  1.6039 -1.3396
10556SOL    HW233119   7.035   0.452   6.155  0.8930  1.6661  1.0223
10557SOL     OW33120   4.720   6.515   6.414  0.0489  0.0513 -0.1127
10557SOL    HW133121   4.676   6.583   6.363  1.4621  1.2794  0.2333
10557SOL    HW233122   4.802   6.499   6.367  1.6208  1.5693  1.9225
10558SOL     OW33123   4.629   3.743   0.407  0.5585  0.2179 -0.6384
10558SOL    HW133124   4.621   3.660   0.454  1.7573  0.5489  0.2192
10558SOL    HW233125   4.540   3.779   0.406  0.2388 -0.5186  0.0600
10559SOL     OW33126   1.191   5.420   5.432 -0.0380  0.2459  0.1945
10559SOL    HW133127   1.138   5.498   5.413  1.3863  1.0770 -0.5543
10559SOL    HW233128   1.278   5.442   5.399  0.6979 -1.2096  1.0749
10560SOL     OW33129   1.764   0.894   6.939  0.1077  0.2952 -0.5350
10560SOL    HW133130   1.745   0.832   6.868  0.7460 -1.4624  0.7664
10560SOL    HW233131   1.849   0.866   6.974  0.2826  1.7485  0.2945
10561SOL     OW33132   3.460   5.661   3.750 -0.0254 -0.3863 -0.8046
10561SOL    HW133133   3.548   5.651   3.715 -0.1809  0.4934 -1.4750
10561SOL    HW233134   3.468   5.732   3.814 -0.3378 -0.0038 -1.1907
10562SOL     OW33135   0.475   2.249   3.245  0.2611  0.0658 -0.0741
10562SOL    HW133136   0.477   2.330   3.296  0.9851  0.2333 -0.3584
10562SOL    HW233137   0.398   2.202   3.278 -0.4099  1.0492 -0.1951
10563SOL     OW33138   0.591   4.088   5.601  0.5178  0.2698 -0.0552
10563SOL    HW133139   0.649   4.026   5.646 -0.1486  0.0280  0.4743
10563SOL    HW233140   0.508   4.081   5.647 -0.2886 -0.2112 -1.5142
10564SOL     OW33141   0.243   0.048   2.371  0.3223 -0.5462  0.3307
10564SOL    HW133142   0.281   0.072   2.286  1.4712 -2.4331  0.2711
10564SOL    HW233143   0.150   0.071   2.363  0.5491 -0.0452 -1.1676
10565SOL     OW33144   5.404   1.274   0.988  0.1914 -0.1974 -0.8349
10565SOL    HW133145   5.442   1.198   0.943  0.8829  0.2960 -1.1031
10565SOL    HW233146   5.336   1.306   0.929 -1.8672 -2.0572  0.3530
10566SOL     OW33147   3.698   6.551   2.232 -0.5541  0.2201  0.0373
10566SOL    HW133148   3.607   6.541   2.262 -0.4554 -0.1491  0.2190
10566SOL    HW233149   3.691   6.610   2.157 -0.7996  1.1752  0.7798
10567SOL     OW33150   0.579   1.362   4.431  0.7870 -0.4253 -0.4132
10567SOL    HW133151   0.539   1.327   4.351  2.1621  0.7688 -1.6989
10567SOL    HW233152   0.505   1.393   4.483 -0.0585  1.5839 -2.6234
10568SOL     OW33153   1.889   0.083   3.269 -0.0485 -0.4713 -0.0089
10568SOL    HW133154   1.860   0.141   3.198 -0.6006 -0.2429  0.3938
10568SOL    HW233155   1.839   0.112   3.345  1.2642 -0.0535  0.7327
10569SOL     OW33156   0.125   5.044   4.969 -0.5203  0.0124  0.0709
10569SOL    HW133157   0.204   5.020   4.920 -1.5613  0.5522 -1.9941
10569SOL    HW233158   0.099   4.964   5.014 -0.3620 -0.9748 -1.5249
10570SOL     OW33159   0.457   5.488   2.694 -0.3881 -0.6422  0.2075
10570SOL    HW133160   0.438   5.491   2.787 -0.5555 -0.9899  0.1883
10570SOL    HW233161   0.464   5.580   2.667  0.0537 -0.5453  0.6367
10571SOL     OW33162   3.963   1.334   0.751 -0.2200  0.1575  0.2739
10571SOL    HW133163   3.991   1.354   0.841  0.7390  0.1458 -0.0070
10571SOL    HW233164   3.906   1.407   0.727  0.7257  0.9544  0.3689
10572SOL     OW33165   5.677   5.513   0.387  0.9624 -0.2909 -0.1075
10572SOL    HW133166   5.660   5.426   0.351 -0.0807 -0.1496  0.0052
10572SOL    HW233167   5.592   5.558   0.383  0.7697 -0.2407  2.4160
10573SOL     OW33168   5.565   6.572   5.014  0.4482  0.8746  1.3769
10573SOL    HW133169   5.470   6.575   5.028  0.1387  0.0444 -0.2831
10573SOL    HW233170   5.596   6.658   5.043 -0.9478  1.5270  1.0258
10574SOL     OW33171   3.879   3.835   0.712  0.7014  0.1846  0.5955
10574SOL    HW133172   3.820   3.911   0.711 -0.7468 -0.8124 -2.1170
10574SOL    HW233173   3.953   3.862   0.767 -0.7095  2.7491  1.4108
10575SOL     OW33174   2.970   0.589   5.828  0.0073  0.0346 -0.6055
10575SOL    HW133175   3.010   0.661   5.875 -0.0547 -0.2324 -0.1401
10575SOL    HW233176   2.931   0.534   5.896  0.2801 -0.5763 -0.9306
10576SOL     OW33177   1.987   5.212   4.009  0.0726 -0.0317 -0.3887
10576SOL    HW133178   1.998   5.228   4.103  0.3116  0.3346 -0.4760
10576SOL    HW233179   1.938   5.130   4.004 -3.2694  1.7517  0.1149
10577SOL     OW33180   5.043   6.478   1.508  0.1381 -0.3166  0.4187
10577SOL    HW133181   5.076   6.452   1.421  0.9356  2.2404 -0.1151
10577SOL    HW233182   5.041   6.396   1.557  0.2133 -1.7658 -1.8212
10578SOL     OW33183   7.028   4.713   1.513  0.1156 -0.1204  0.2048
10578SOL    HW133184   7.084   4.658   1.568  0.2204 -0.0673  0.1509
10578SOL    HW233185   6.984   4.651   1.455  0.3022 -0.1371  0.0836
10579SOL     OW33186   2.874   0.253   4.958 -0.3746  0.2152 -0.2458
10579SOL    HW133187   2.940   0.218   4.898 -1.8286 -3.1853 -0.1174
10579SOL    HW233188   2.809   0.293   4.901  1.4293  3.2156 -0.3925
10580SOL     OW33189   0.144   2.764   2.172  0.0398  0.6138  0.0337
10580SOL    HW133190   0.157   2.826   2.101 -1.7780  1.7281  0.5990
10580SOL    HW233191   0.110   2.817   2.245 -0.1650 -0.8111  1.0314
10581SOL     OW33192   3.433   1.521   1.139 -0.5084  0.1537  0.1525
10581SOL    HW133193   3.386   1.575   1.202  0.7669 -0.1844  1.4443
10581SOL    HW233194   3.486   1.582   1.088  1.6486  0.1422  2.2262
10582SOL     OW33195   3.893   5.253   5.088  0.4161  0.0057  0.0487
10582SOL    HW133196   3.954   5.217   5.152  1.3428 -0.2853 -0.9785
10582SOL    HW233197   3.877   5.182   5.026  2.2515  1.2362 -2.0045
10583SOL     OW33198   1.735   0.345   2.726  0.2631  0.5475  0.1389
10583SOL    HW133199   1.786   0.269   2.698 -1.0014 -0.7779  1.2925
10583SOL    HW233200   1.717   0.330   2.818  0.4897  2.5778  0.5752
10584SOL     OW33201   6.733   5.778   2.619  0.1182 -0.1268 -0.2091
10584SOL    HW133202   6.703   5.702   2.669 -1.2648  0.1620 -0.5625
10584SOL    HW233203   6.803   5.816   2.673 -1.1129 -0.0086  1.3613
10585SOL     OW33204   2.713   5.434   6.438 -0.1880  0.2247 -0.2171
10585SOL    HW133205   2.735   5.381   6.515 -0.3664  1.7725  0.9386
10585SOL    HW233206   2.793   5.434   6.386  0.1204 -0.3737  0.2371
10586SOL     OW33207   0.710   3.267   6.782 -0.2395 -0.7891  0.3421
10586SOL    HW133208   0.615   3.263   6.790 -0.3979 -0.6691 -1.1903
10586SOL    HW233209   0.727   3.244   6.691  1.0406  1.3309 -0.0141
10587SOL     OW33210   3.833   4.673   4.610  0.6525  0.5288  0.2310
10587SOL    HW133211   3.760   4.702   4.664  1.0795 -0.1813  1.2206
10587SOL    HW233212   3.888   4.622   4.669  1.2530 -0.0918 -0.8226
10588SOL     OW33213   6.327   0.084   4.239  0.1516 -0.2521  0.0014
10588SOL    HW133214   6.263   0.014   4.248 -0.0277 -0.1534 -0.4596
10588SOL    HW233215   6.328   0.104   4.145  0.7142 -0.1178  0.0286
10589SOL     OW33216   0.786   6.115   3.531  0.1524 -0.1660 -0.6174
10589SOL    HW133217   0.716   6.091   3.592 -0.3094  2.4094  0.0104
10589SOL    HW233218   0.742   6.163   3.462  1.2222  1.2231 -0.3734
10590SOL     OW33219   1.192   0.208   6.007  0.0297  0.0970 -0.2492
10590SOL    HW133220   1.220   0.269   5.938  0.9955  0.2249  0.2312
10590SOL    HW233221   1.144   0.262   6.069  0.2242  0.2297 -0.2112
10591SOL     OW33222   0.379   2.125   2.552 -0.1369 -0.6397 -0.3010
10591SOL    HW133223   0.338   2.056   2.501 -2.7124 -0.1892  1.0012
10591SOL    HW233224   0.319   2.140   2.625  1.8337  0.9029  1.1198
10592SOL     OW33225   2.160   5.073   5.994  0.0306  0.1804  0.4669
10592SOL    HW133226   2.105   5.000   6.022 -1.3561  1.8715  2.5001
10592SOL    HW233227   2.249   5.044   6.015 -0.2075 -1.7756 -0.9125
10593SOL     OW33228   3.920   4.651   6.117  0.0919  0.0621  0.4752
10593SOL    HW133229   3.857   4.723   6.130  0.5495  0.6410 -0.4451
10593SOL    HW233230   3.880   4.595   6.051  0.5107  0.4109 -0.0840
10594SOL     OW33231   5.862   6.301   3.327  0.3676  0.0566 -0.5705
10594SOL    HW133232   5.924   6.231   3.309  0.1738 -0.5090  0.8213
10594SOL    HW233233   5.912   6.366   3.376  0.0567 -0.0448 -0.1114
10595SOL     OW33234   6.337   6.540   2.322  0.4413 -0.2714 -0.0626
10595SOL    HW133235   6.426   6.573   2.324  0.3030  0.0555  1.2483
10595SOL    HW233236   6.299   6.565   2.406 -0.8909 -0.4045 -0.5930
10596SOL     OW33237   5.770   4.267   6.817 -0.8081  0.2239  0.2721
10596SOL    HW133238   5.821   4.348   6.830  0.5515 -0.6186  0.4467
10596SOL    HW233239   5.829   4.210   6.768 -3.1045  0.6511 -3.4048
10597SOL     OW33240   0.188   4.020   4.281  0.6282 -0.1340 -0.1838
10597SOL    HW133241   0.238   4.077   4.339  1.4910 -0.6693 -0.3894
10597SOL    HW233242   0.181   4.069   4.199  0.0524  0.3098  0.1288
10598SOL     OW33243   0.112   6.023   1.153 -0.0386  0.1792 -0.8762
10598SOL    HW133244   0.157   6.014   1.237 -0.9040 -0.3395 -0.4509
10598SOL    HW233245   0.102   5.933   1.121 -2.6955  0.0458  0.1060
10599SOL     OW33246   4.442   4.101   0.120 -0.0223 -0.2619  0.2650
10599SOL    HW133247   4.510   4.044   0.085 -0.8636 -1.4996  0.6003
10599SOL    HW233248   4.424   4.068   0.207  0.1326  1.1183  0.8479
10600SOL     OW33249   5.150   3.911   5.542  0.3070  0.5340 -0.1305
10600SOL    HW133250   5.089   3.963   5.594  0.2433  0.1720  0.1642
10600SOL    HW233251   5.135   3.821   5.571  0.4171  0.3528 -0.6327
10601SOL     OW33252   4.737   1.003   3.311 -0.3882  0.1157 -0.2124
10601SOL    HW133253   4.642   1.001   3.319 -0.3872 -2.2947  0.0012
10601SOL    HW233254   4.768   0.963   3.393  1.0189  3.9751  1.3490
10602SOL     OW33255   7.129   4.818   5.071 -0.2726 -0.3738  0.6810
10602SOL    HW133256   7.040   4.795   5.095 -0.9227  1.8336  0.6075
10602SOL    HW233257   7.132   4.808   4.976 -0.6953  0.2906  0.5941
10603SOL     OW33258   3.082   1.207   0.103  0.3925  0.4671 -0.8718
10603SOL    HW133259   3.046   1.123   0.131  1.7621 -1.0263 -3.1818
10603SOL    HW233260   3.050   1.218   0.014  1.3991  1.6676 -1.1129
10604SOL     OW33261   6.346   3.512   1.837 -0.1393 -0.2962 -0.8008
10604SOL    HW133262   6.353   3.605   1.856 -1.2294 -0.3643  0.0635
10604SOL    HW233263   6.310   3.509   1.748 -4.2933  0.2942  0.5952
10605SOL     OW33264   1.078   4.151   6.164 -0.1716 -0.0423  0.3301
10605SOL    HW133265   0.993   4.195   6.163 -0.4773 -0.5811  1.1800
10605SOL    HW233266   1.058   4.061   6.189  0.8157  0.2892  2.6084
10606SOL     OW33267   3.084   6.796   0.629 -0.6727  0.0251  0.3897
10606SOL    HW133268   3.177   6.785   0.612 -0.5089  1.7615  0.0460
10606SOL    HW233269   3.042   6.731   0.573  0.3562 -2.1381  1.9725
10607SOL     OW33270   6.153   5.253   3.531  0.0606 -0.6186 -0.0304
10607SOL    HW133271   6.186   5.172   3.570 -0.1391 -0.1547  1.1357
10607SOL    HW233272   6.208   5.266   3.454  0.5404 -1.5068  0.1454
10608SOL     OW33273   1.083   6.314   1.060  0.3901 -0.2542  0.0356
10608SOL    HW133274   1.064   6.307   0.966 -4.0769  0.5326  0.6439
10608SOL    HW233275   1.079   6.223   1.092 -0.4023 -0.3122 -0.2185
10609SOL     OW33276   4.630   4.419   2.378  0.5226 -0.2077  0.3295
10609SOL    HW133277   4.544   4.415   2.419  0.0115  0.2165 -0.6631
10609SOL    HW233278   4.687   4.369   2.437 -0.7234 -1.9101  0.1820
10610SOL     OW33279   0.354   0.091   2.772 -0.2984 -0.2669  0.3290
10610SOL    HW133280   0.437   0.088   2.725  0.1927  1.3144  1.0120
10610SOL    HW233281   0.301   0.023   2.731  0.6531 -0.0143 -1.4568
10611SOL     OW33282   2.696   0.648   4.507 -0.5892 -0.2203  0.1374
10611SOL    HW133283   2.606   0.678   4.496 -0.6364 -0.0738  0.9056
10611SOL    HW233284   2.702   0.569   4.453 -0.6014  0.8749 -1.5358
10612SOL     OW33285   6.163   2.863   5.806 -0.8235  0.1774  0.4269
10612SOL    HW133286   6.170   2.957   5.791 -0.2479  0.6820  3.2106
10612SOL    HW233287   6.252   2.830   5.791 -0.7498  0.2925  0.6041
10613SOL     OW33288   4.508   3.647   2.601  0.2906 -0.1431 -0.8699
10613SOL    HW133289   4.502   3.643   2.506  0.0541 -1.0917 -0.8202
10613SOL    HW233290   4.469   3.566   2.632  1.9675 -0.6950 -0.0274
10614SOL     OW33291   5.967   1.195   1.153 -0.7617 -0.3079 -0.0282
10614SOL    HW133292   5.991   1.103   1.161 -0.6401 -0.1933  0.9904
10614SOL    HW233293   5.947   1.223   1.242  1.0141  1.1600 -0.0281
10615SOL     OW33294   0.484   7.015   6.982 -0.4368 -0.0879 -0.0565
10615SOL    HW133295   0.505   6.950   6.915  1.3382  0.4263 -0.0484
10615SOL    HW233296   0.537   6.990   7.057 -0.2868  0.9472  0.1975
10616SOL     OW33297   6.855   4.104   2.206 -0.1939 -1.0615 -0.1606
10616SOL    HW133298   6.851   4.181   2.262  0.6641 -0.9911 -0.1887
10616SOL    HW233299   6.784   4.116   2.143 -0.4042 -0.5640  0.1650
10617SOL     OW33300   1.263   4.808   5.353 -0.0678  0.0123  0.2321
10617SOL    HW133301   1.335   4.747   5.372  1.0606  1.1943 -0.0422
10617SOL    HW233302   1.274   4.828   5.260 -1.1016 -0.2023  0.0555
10618SOL     OW33303   3.964   4.142   4.661  0.0978  0.4847 -0.0748
10618SOL    HW133304   3.953   4.056   4.703 -0.2167  0.5276 -0.0690
10618SOL    HW233305   4.000   4.121   4.575 -1.7632  0.2088 -0.8104
10619SOL     OW33306   3.187   5.418   0.394  0.3817 -0.2050  0.5479
10619SOL    HW133307   3.219   5.500   0.432 -1.0200  0.6999 -0.1345
10619SOL    HW233308   3.267   5.371   0.368  1.2065  1.4983 -0.1818
10620SOL     OW33309   2.410   3.541   3.874  0.4542 -0.2955 -0.4728
10620SOL    HW133310   2.338   3.595   3.844  1.6626  0.8676 -1.4019
10620SOL    HW233311   2.487   3.575   3.827  1.6261 -1.4133  0.5566
10621SOL     OW33312   5.991   4.240   6.078 -0.0749  0.5356 -0.4493
10621SOL    HW133313   6.078   4.270   6.103  0.2774 -1.5330  1.0916
10621SOL    HW233314   5.935   4.260   6.153 -0.9323  1.6498 -1.3398
10622SOL     OW33315   4.698   6.006   2.014 -0.0497  0.4499  0.2558
10622SOL    HW133316   4.691   5.912   1.997  0.6302 -0.1258  2.8238
10622SOL    HW233317   4.642   6.021   2.090  0.4253  2.0110  0.3217
10623SOL     OW33318   1.170   0.463   2.443 -0.6832 -0.0753  0.0015
10623SOL    HW133319   1.077   0.480   2.457 -1.1830 -1.9664 -0.7167
10623SOL    HW233320   1.210   0.474   2.529 -1.9733 -1.5031  0.8208
10624SOL     OW33321   6.835   3.987   3.731 -0.8063 -0.3459  0.4998
10624SOL    HW133322   6.743   4.013   3.740 -0.5745  0.5814  0.3312
10624SOL    HW233323   6.836   3.893   3.751 -1.8407 -0.4429  0.1606
10625SOL     OW33324   5.008   5.220   5.818  0.3980  0.6202  0.2132
10625SOL    HW133325   5.100   5.199   5.834 -0.2150 -2.1965  0.5743
10625SOL    HW233326   4.984   5.163   5.744 -1.3646  0.3364  0.9704
10626SOL     OW33327   7.126   0.107   6.979  0.2339  0.1369 -0.0836
10626SOL    HW133328   7.077   0.041   6.931  0.5326 -0.7554  0.8144
10626SOL    HW233329   7.217   0.093   6.954  0.1374  1.4071 -1.2879
10627SOL     OW33330   4.072   6.799   5.656 -0.1307 -0.2579  0.2052
10627SOL    HW133331   4.032   6.779   5.741  3.6412  1.6908  2.7154
10627SOL    HW233332   4.048   6.891   5.640 -1.6368 -0.8935 -1.4533
10628SOL     OW33333   7.003   2.803   2.755 -0.0671 -0.5265 -0.6814
10628SOL    HW133334   7.031   2.713   2.740  3.6843  0.2966  0.4193
10628SOL    HW233335   6.935   2.796   2.823  2.0703 -2.4377  1.4334
10629SOL     OW33336   2.504   6.599   3.410 -0.2239 -0.4034 -0.1285
10629SOL    HW133337   2.462   6.678   3.376  1.7034  0.0938 -1.5485
10629SOL    HW233338   2.502   6.609   3.505 -0.8885  0.8673 -0.2614
10630SOL     OW33339   0.060   5.162   5.281  0.6261  0.2061 -0.4671
10630SOL    HW133340   0.011   5.203   5.209 -1.0313 -1.1152 -0.1356
10630SOL    HW233341   0.150   5.193   5.269 -0.3079  2.9868 -0.8976
10631SOL     OW33342   0.050   1.303   2.312  0.1264 -0.6125 -0.1081
10631SOL    HW133343   0.018   1.213   2.309  0.1989 -0.6204 -1.0139
10631SOL    HW233344  -0.009   1.351   2.255  0.8329 -0.3388 -0.6206
10632SOL     OW33345   4.534   3.148   1.283 -0.4092  0.2661 -0.1430
10632SOL    HW133346   4.600   3.114   1.342 -0.9897 -1.1074 -0.2511
10632SOL    HW233347   4.582   3.206   1.223  0.3579  0.7864  0.9473
10633SOL     OW33348   0.068   1.275   0.260 -0.2820 -0.2101 -0.1124
10633SOL    HW133349   0.030   1.336   0.197 -0.7603 -2.1812 -1.8228
10633SOL    HW233350   0.157   1.261   0.231 -0.7089 -1.6479 -0.7966
10634SOL     OW33351   1.433   0.474   3.822 -0.5706  0.4994  0.1626
10634SOL    HW133352   1.346   0.448   3.854 -0.0264 -0.9168  0.5775
10634SOL    HW233353   1.460   0.545   3.880 -1.8985  1.7577 -0.6798
10635SOL     OW33354   1.299   1.956   2.049  0.2822  0.0865 -0.7862
10635SOL    HW133355   1.284   1.945   1.956 -1.4251 -1.5268 -0.3682
10635SOL    HW233356   1.218   1.926   2.091 -0.1132  3.4100  1.1406
10636SOL     OW33357   3.381   6.779   6.738  0.1435  0.1741 -0.2657
10636SOL    HW133358   3.400   6.722   6.812  1.8244 -0.3468 -1.0613
10636SOL    HW233359   3.311   6.734   6.690 -0.5201  0.2106  0.6404
10637SOL     OW33360   2.217   4.038   6.581 -0.3212 -0.2979 -0.3611
10637SOL    HW133361   2.277   4.008   6.513  0.4238  1.2584 -0.4137
10637SOL    HW233362   2.199   4.129   6.560 -2.3125 -0.5549 -0.0407
10638SOL     OW33363   0.899   3.776   2.738 -0.5838  0.4329 -0.0480
10638SOL    HW133364   0.804   3.776   2.748 -0.8463 -0.9483 -2.0076
10638SOL    HW233365   0.930   3.708   2.798 -1.0414 -0.3900 -0.7263
10639SOL     OW33366   3.301   4.487   6.151 -0.1695  0.1483  0.4296
10639SOL    HW133367   3.276   4.413   6.095  0.8377  1.4022 -1.8085
10639SOL    HW233368   3.396   4.483   6.156  0.1228  2.4305 -1.5458
10640SOL     OW33369   6.687   3.146   6.556  0.2341 -0.6111 -0.6488
10640SOL    HW133370   6.656   3.145   6.646  0.7312 -1.4487 -0.4645
10640SOL    HW233371   6.627   3.204   6.510 -1.4014 -1.9057 -0.2527
10641SOL     OW33372   1.708   0.911   0.739  0.2530  0.5846 -0.6180
10641SOL    HW133373   1.799   0.896   0.763 -0.0687 -2.8215 -1.1249
10641SOL    HW233374   1.659   0.899   0.820  0.1588  1.7249 -0.4904
10642SOL     OW33375   5.792   4.859   1.936  0.9569 -0.2749  0.4620
10642SOL    HW133376   5.710   4.846   1.984  0.8091  1.6591  0.8394
10642SOL    HW233377   5.854   4.889   2.003  0.5247  3.3202 -0.5061
10643SOL     OW33378   2.982   1.691   5.608 -0.0479 -0.1032  0.1787
10643SOL    HW133379   3.004   1.600   5.590  0.9911  0.2114 -0.2157
10643SOL    HW233380   3.028   1.741   5.541 -1.1331  0.6849 -0.0244
10644SOL     OW33381   6.323   6.290   1.702  0.0888  0.2234 -0.3522
10644SOL    HW133382   6.299   6.212   1.652 -0.9109 -0.5208  1.2014
10644SOL    HW233383   6.401   6.265   1.751 -0.1256  0.2501  0.0080
10645SOL     OW33384   2.638   6.907   3.552 -0.0209  0.3529 -0.5370
10645SOL    HW133385   2.606   6.949   3.472 -1.1788  0.8601  0.1709
10645SOL    HW233386   2.684   6.976   3.599 -1.3495  0.6858  0.3139
10646SOL     OW33387   2.911   2.705   0.124  0.0429  0.0963  0.2577
10646SOL    HW133388   2.885   2.796   0.142 -0.5442  0.3295 -1.5848
10646SOL    HW233389   2.931   2.703   0.031 -0.7084 -1.8377  0.0864
10647SOL     OW33390   3.784   4.142   5.913 -0.2104  0.7834 -0.0757
10647SOL    HW133391   3.873   4.140   5.878  0.4217 -1.4348  1.4360
10647SOL    HW233392   3.790   4.098   5.998 -3.0922 -1.5245 -0.8702
10648SOL     OW33393   4.028   3.729   1.895 -0.4531 -0.5800  0.3030
10648SOL    HW133394   3.959   3.668   1.920 -0.8579 -0.1471  0.2534
10648SOL    HW233395   3.995   3.815   1.921 -0.0717 -0.3332 -0.0107
10649SOL     OW33396   6.694   6.190   6.020 -0.2218 -0.2594  0.4889
10649SOL    HW133397   6.654   6.108   6.050 -1.6716  0.2395  0.0181
10649SOL    HW233398   6.684   6.188   5.925  0.0104  0.3303  0.4497
10650SOL     OW33399   5.633   3.988   7.068  0.0888  0.0513 -0.1574
10650SOL    HW133400   5.589   3.912   7.028 -0.2604 -0.1797  0.6409
10650SOL    HW233401   5.631   4.055   7.000  1.0468 -0.8739 -1.1390
10651SOL     OW33402   5.202   6.377   1.276  0.2652 -0.5474  0.0055
10651SOL    HW133403   5.261   6.309   1.309 -0.0502 -1.6922 -1.6636
10651SOL    HW233404   5.242   6.406   1.194 -0.6365 -0.1279 -0.2972
10652SOL     OW33405   7.019   0.690   1.794  0.1224 -0.2502  0.3220
10652SOL    HW133406   7.093   0.695   1.734 -0.3828  0.4013 -0.2606
10652SOL    HW233407   7.010   0.596   1.813  2.3278 -0.2189  1.9846
10653SOL     OW33408   3.703   3.785   6.738  0.3711  0.3737 -0.0464
10653SOL    HW133409   3.735   3.794   6.648  0.7756  0.5075  0.1075
10653SOL    HW233410   3.711   3.873   6.774  0.0270  0.3607  0.0623
10654SOL     OW33411   3.569   2.925   0.101 -0.1102  0.1120  0.2959
10654SOL    HW133412   3.660   2.893   0.097 -0.4155 -0.7861  0.1825
10654SOL    HW233413   3.549   2.949   0.010  0.4654  1.6745  0.5563
10655SOL     OW33414   1.977   5.222   6.253 -0.3588 -0.2247  0.3795
10655SOL    HW133415   2.066   5.248   6.273  0.2075  0.3724 -2.5256
10655SOL    HW233416   1.970   5.133   6.289  1.6260 -0.5293  0.1433
10656SOL     OW33417   0.999   5.890   7.113 -0.2680  0.0156 -0.1364
10656SOL    HW133418   0.907   5.862   7.121  0.6427 -3.0578  0.7364
10656SOL    HW233419   1.012   5.903   7.019 -1.3356 -0.5005 -0.3698
10657SOL     OW33420   0.137   1.408   0.652 -0.0076 -0.2276  0.3894
10657SOL    HW133421   0.091   1.482   0.691  0.7995 -0.5998  2.1330
10657SOL    HW233422   0.067   1.349   0.622 -0.6440  0.6534  0.1149
10658SOL     OW33423   2.425   5.086   2.747 -0.0529 -0.4705  0.2066
10658SOL    HW133424   2.339   5.128   2.748 -0.0861 -0.4979  1.9791
10658SOL    HW233425   2.447   5.077   2.655 -1.5590  0.3470 -0.2544
10659SOL     OW33426   4.501   1.188   6.424  0.0822 -0.2519  0.0469
10659SOL    HW133427   4.416   1.147   6.438 -0.2357 -0.7474 -2.7192
10659SOL    HW233428   4.490   1.277   6.459 -0.9036 -0.8886  1.4630
10660SOL     OW33429   6.787   4.354   2.365 -0.0868 -0.4945  0.1279
10660SOL    HW133430   6.697   4.328   2.342  0.2085 -0.8740 -0.6208
10660SOL    HW233431   6.776   4.417   2.436 -1.0284  0.6283 -0.9818
10661SOL     OW33432   6.810   0.610   3.911 -0.3365 -0.0433  0.0387
10661SOL    HW133433   6.859   0.684   3.874  1.9040 -0.7045  1.4690
10661SOL    HW233434   6.787   0.556   3.835  0.3356  0.7818 -0.7841
10662SOL     OW33435   3.168   2.734   5.492 -0.0716  0.1906  0.2046
10662SOL    HW133436   3.157   2.645   5.528 -0.5253  0.5653  1.0165
10662SOL    HW233437   3.111   2.788   5.546  2.1634  1.4385  1.4487
10663SOL     OW33438   6.016   3.389   1.101 -0.4017 -0.1943  0.0256
10663SOL    HW133439   5.939   3.351   1.143  1.7936 -1.9352  2.7190
10663SOL    HW233440   6.047   3.321   1.041  1.1604 -1.1504  1.8141
10664SOL     OW33441   3.459   4.590   3.350 -0.2187  0.2160 -1.0434
10664SOL    HW133442   3.485   4.584   3.442 -0.0439  0.1113 -1.0989
10664SOL    HW233443   3.535   4.557   3.301 -0.1686  0.6211 -1.2423
10665SOL     OW33444   4.586   5.188   5.264  0.0909 -0.0835 -0.0223
10665SOL    HW133445   4.583   5.246   5.340  0.3615  0.2236 -0.2451
10665SOL    HW233446   4.494   5.171   5.244  0.0121  0.1240  0.1522
10666SOL     OW33447   5.141   7.069   3.290  0.0874 -0.0161 -0.8055
10666SOL    HW133448   5.224   7.115   3.275  0.1115  1.3776  2.5869
10666SOL    HW233449   5.077   7.119   3.240  1.0128  0.0028 -2.0112
10667SOL     OW33450   2.797   3.584   0.005  0.3488 -0.5500  0.1253
10667SOL    HW133451   2.749   3.564  -0.075  1.0552 -1.4407 -0.0940
10667SOL    HW233452   2.729   3.602   0.071 -0.2406  1.8263 -1.0402
10668SOL     OW33453   3.190   0.802   4.776  0.6275 -0.3533  0.2448
10668SOL    HW133454   3.199   0.885   4.824  0.8972 -0.1812 -0.1002
10668SOL    HW233455   3.139   0.746   4.834  1.4088 -0.3301  0.9506
10669SOL     OW33456   3.581   2.139   3.142 -0.0084 -0.3675  0.2981
10669SOL    HW133457   3.650   2.102   3.086  0.8901  0.2746  0.9526
10669SOL    HW233458   3.500   2.123   3.093  0.7864  0.6111 -1.4437
10670SOL     OW33459   5.891   3.785   6.300 -0.2394  0.5900 -0.6679
10670SOL    HW133460   5.886   3.709   6.357 -0.3957 -0.6611 -2.2976
10670SOL    HW233461   5.936   3.852   6.353  0.3072 -0.7563  0.6315
10671SOL     OW33462   1.408   1.641   1.357 -0.4990  0.0820  0.1380
10671SOL    HW133463   1.397   1.593   1.438 -1.7114  0.9592  0.5264
10671SOL    HW233464   1.331   1.619   1.305  0.5444 -0.9366 -1.0575
10672SOL     OW33465   6.166   0.656   4.765 -0.2884  0.1403 -0.3688
10672SOL    HW133466   6.246   0.648   4.817  0.9164  2.5682 -1.6367
10672SOL    HW233467   6.101   0.692   4.825  0.8763  2.2215 -0.2316
10673SOL     OW33468   5.084   5.852   2.150 -0.1581 -0.4737 -0.2737
10673SOL    HW133469   5.060   5.880   2.238 -0.3754 -1.3742 -0.0344
10673SOL    HW233470   5.072   5.757   2.151 -0.2502 -0.4851 -1.3048
10674SOL     OW33471   4.786   2.893   1.909  0.2846 -0.4271 -0.3142
10674SOL    HW133472   4.853   2.944   1.863 -1.4309 -0.2583 -2.8429
10674SOL    HW233473   4.815   2.802   1.900  1.3160 -0.2299  0.7062
10675SOL     OW33474   5.514   1.276   1.230  0.5712  0.6858  0.0564
10675SOL    HW133475   5.521   1.186   1.260 -0.0147  1.0198  1.2490
10675SOL    HW233476   5.460   1.271   1.151 -1.3452  0.1769  1.3016
10676SOL     OW33477   0.883   3.481   2.176  0.0747  0.8709 -0.0587
10676SOL    HW133478   0.872   3.489   2.081  1.3745  1.5607 -0.1789
10676SOL    HW233479   0.855   3.391   2.196  1.9779 -0.1265 -1.4948
10677SOL     OW33480   3.138   4.253   3.278  0.1517  0.1257 -0.6792
10677SOL    HW133481   3.053   4.286   3.306  0.2733 -0.5147  0.5016
10677SOL    HW233482   3.169   4.202   3.352  1.6167  0.4400 -1.0478
10678SOL     OW33483   2.957   2.300   0.340 -0.3215  0.6052 -0.5117
10678SOL    HW133484   2.974   2.238   0.268 -0.1628  0.1696 -0.1036
10678SOL    HW233485   3.036   2.352   0.346 -0.3041  0.5899 -0.6035
10679SOL     OW33486   5.680   4.772   1.711 -0.8709  0.5561  0.2356
10679SOL    HW133487   5.654   4.839   1.647 -0.8920  0.2139 -0.1218
10679SOL    HW233488   5.696   4.821   1.792 -3.0667  0.7381  0.6259
10680SOL     OW33489   5.117   2.997   2.021  0.1430  0.1334 -0.4337
10680SOL    HW133490   5.125   2.929   2.088  1.6719 -0.3368 -1.0542
10680SOL    HW233491   5.111   2.949   1.938  1.3911  0.7320 -0.8889
10681SOL     OW33492   0.948   1.453   4.671  0.4984 -0.3473 -0.7772
10681SOL    HW133493   1.042   1.470   4.675  0.7058 -1.1557 -1.7113
10681SOL    HW233494   0.941   1.364   4.637 -0.5921 -1.0099  1.0432
10682SOL     OW33495   3.859   2.414   2.417  0.2139 -0.1669 -0.3574
10682SOL    HW133496   3.770   2.423   2.451  0.4101  0.4761 -0.0114
10682SOL    HW233497   3.848   2.415   2.322 -0.1564 -0.1580 -0.3168
10683SOL     OW33498   2.333   2.147   5.960  0.5470 -0.7443 -0.0166
10683SOL    HW133499   2.276   2.120   5.889 -0.4648 -0.7582  0.7775
10683SOL    HW233500   2.294   2.110   6.039  0.4913  0.9225  0.8041
10684SOL     OW33501   2.002   2.404   0.279  0.1800 -0.1950  0.1875
10684SOL    HW133502   2.060   2.357   0.339 -0.9775 -1.8318  0.0908
10684SOL    HW233503   2.051   2.407   0.196 -0.4963 -3.2675 -0.4656
10685SOL     OW33504   4.717   3.076   4.839  0.5405 -0.0190 -0.4800
10685SOL    HW133505   4.712   3.084   4.744 -0.4150 -0.4026 -0.4694
10685SOL    HW233506   4.702   2.982   4.855  1.1699 -0.0394  0.0205
10686SOL     OW33507   5.796   3.231   2.477  0.0164  0.3564 -0.6277
10686SOL    HW133508   5.872   3.290   2.478 -1.3442  2.2279  0.4562
10686SOL    HW233509   5.728   3.281   2.432 -0.9370 -0.7682 -0.4791
10687SOL     OW33510   1.724   1.281   2.556  0.1823  0.1930 -0.3497
10687SOL    HW133511   1.694   1.353   2.501  0.4464  1.1114  0.6926
10687SOL    HW233512   1.729   1.206   2.496  1.4535  1.3901 -1.8144
10688SOL     OW33513   0.748   3.561   6.579  0.5190 -0.2047 -0.2501
10688SOL    HW133514   0.664   3.520   6.600 -0.0143  0.4561 -1.0143
10688SOL    HW233515   0.767   3.535   6.489  2.5804 -2.6735  0.7773
10689SOL     OW33516   1.838   3.550   1.465 -0.7006  0.2693  0.3584
10689SOL    HW133517   1.877   3.623   1.513 -0.2352  0.1858  0.1127
10689SOL    HW233518   1.832   3.581   1.375 -0.8994  0.1611  0.3342
10690SOL     OW33519   5.044   1.596   0.821  0.1514 -0.1617  0.1133
10690SOL    HW133520   4.961   1.617   0.778  0.9461 -0.2215 -1.5486
10690SOL    HW233521   5.058   1.668   0.882 -1.0730 -0.1036  0.3459
10691SOL     OW33522   6.291   3.458   2.375 -0.6185 -0.2864 -0.1442
10691SOL    HW133523   6.283   3.455   2.279 -0.4037  1.3463 -0.2461
10691SOL    HW233524   6.240   3.536   2.400  0.1935 -0.1008  0.9574
10692SOL     OW33525   0.807   6.696   1.474  0.0747 -0.1082  0.1767
10692SOL    HW133526   0.854   6.730   1.550 -1.3531 -0.9893  1.4904
10692SOL    HW233527   0.719   6.677   1.505 -0.2823 -1.4129 -1.4458
10693SOL     OW33528   1.059   5.098   3.266 -0.2592 -0.4444  0.0990
10693SOL    HW133529   0.979   5.135   3.229 -0.8301 -2.1677 -0.5190
10693SOL    HW233530   1.123   5.102   3.195  0.1891  0.7879  0.5436
10694SOL     OW33531   6.052   6.919   3.368  0.5569 -0.3061 -0.4288
10694SOL    HW133532   6.094   7.001   3.397 -0.4145 -0.1382  0.5573
10694SOL    HW233533   6.115   6.880   3.308  2.0986  0.0044  0.9100
10695SOL     OW33534   1.381   1.198   1.476  0.2201 -0.0240 -0.0850
10695SOL    HW133535   1.364   1.178   1.568 -0.7119 -1.1173 -0.4810
10695SOL    HW233536   1.419   1.118   1.440 -2.1177 -0.6590 -1.3183
10696SOL     OW33537   2.985   2.118   5.115 -0.7714  0.2898  0.1019
10696SOL    HW133538   2.918   2.083   5.174 -1.1038  0.2402 -0.2941
10696SOL    HW233539   2.935   2.150   5.039 -0.4901  1.8086  0.5358
10697SOL     OW33540   1.395   6.063   5.601 -0.1076 -0.2833  0.3945
10697SOL    HW133541   1.311   6.035   5.564  1.8752 -3.4433 -2.3554
10697SOL    HW233542   1.395   6.030   5.691 -2.3282  1.1852  0.9957
10698SOL     OW33543   0.088   6.517   6.817 -0.6487 -0.3989 -0.0862
10698SOL    HW133544   0.097   6.424   6.797 -2.4146 -1.1118  2.0295
10698SOL    HW233545   0.070   6.558   6.733  1.2588 -1.7568 -1.2318
10699SOL     OW33546   2.676   0.839   0.230  0.3259 -0.3471 -0.1671
10699SOL    HW133547   2.617   0.801   0.164  2.0268 -1.1309 -1.3099
10699SOL    HW233548   2.740   0.770   0.247  1.6518  0.9015  0.1014
10700SOL     OW33549   5.498   6.871   0.074 -0.0162  0.1503  0.0030
10700SOL    HW133550   5.428   6.926   0.038 -0.3675  0.4151  1.0627
10700SOL    HW233551   5.565   6.871   0.006 -0.4179  1.1038 -0.4184
10701SOL     OW33552   2.270   6.961   4.706 -0.0384  0.4725  0.1730
10701SOL    HW133553   2.296   6.999   4.790 -0.9099 -1.9345  1.6142
10701SOL    HW233554   2.293   6.869   4.713 -1.0206  0.0118 -1.8780
10702SOL     OW33555   5.076   2.790   4.504 -0.5760  0.3505 -0.1908
10702SOL    HW133556   5.057   2.697   4.490  0.7861 -0.4009  2.4111
10702SOL    HW233557   5.167   2.792   4.531 -0.3147  2.6026 -1.0396
10703SOL     OW33558   6.029   3.350   7.006 -0.3961 -0.2680 -0.0254
10703SOL    HW133559   6.001   3.423   7.061 -1.5815 -0.6838 -0.0443
10703SOL    HW233560   6.114   3.377   6.971 -0.3517  0.6668  0.7585
10704SOL     OW33561   4.159   1.327   3.064 -0.1624  0.0312 -0.5524
10704SOL    HW133562   4.139   1.244   3.106  1.8127 -0.6522 -0.8329
10704SOL    HW233563   4.226   1.305   2.999 -0.5552  1.6392 -1.5650
10705SOL     OW33564   4.729   7.079   7.093  0.3183 -0.0998 -0.0698
10705SOL    HW133565   4.639   7.112   7.083  0.3796  0.2733  0.6162
10705SOL    HW233566   4.719   6.983   7.095  0.1660 -0.1906 -2.3651
10706SOL     OW33567   3.085   2.552   0.251 -0.2907  0.1649 -0.5766
10706SOL    HW133568   3.151   2.523   0.188 -0.0856  0.4440 -0.4873
10706SOL    HW233569   3.027   2.609   0.201  0.0975  0.6986 -0.4159
10707SOL     OW33570   1.228   5.628   0.614  0.2906  0.4883  0.4222
10707SOL    HW133571   1.228   5.718   0.580 -0.5879 -0.0869 -1.2276
10707SOL    HW233572   1.136   5.602   0.609  0.3199 -0.0722  2.1770
10708SOL     OW33573   6.341   4.542   2.351  0.0861  0.4332 -0.2641
10708SOL    HW133574   6.315   4.456   2.382  1.1905 -0.4201 -1.5845
10708SOL    HW233575   6.280   4.603   2.394  0.0611 -0.8628  1.6352
10709SOL     OW33576   5.368   6.720   3.188 -0.1979  0.0749  0.1942
10709SOL    HW133577   5.372   6.693   3.280  0.3117 -0.6451 -0.0269
10709SOL    HW233578   5.316   6.652   3.145  0.2695 -0.0384 -0.1980
10710SOL     OW33579   1.786   1.899   2.648 -0.0879  0.1236 -0.0299
10710SOL    HW133580   1.703   1.946   2.639  0.4114  1.0994  0.2673
10710SOL    HW233581   1.847   1.948   2.593  0.4055 -0.2800  0.1550
10711SOL     OW33582   5.028   5.095   6.819  0.2767  0.0502  0.0548
10711SOL    HW133583   5.115   5.058   6.801  0.8947  0.7322  1.5161
10711SOL    HW233584   5.029   5.181   6.777  0.9968  0.8173  1.5854
10712SOL     OW33585   6.382   3.595   4.979  0.0077  0.6498 -0.2296
10712SOL    HW133586   6.356   3.513   5.019  2.1081 -0.9293 -1.8630
10712SOL    HW233587   6.357   3.586   4.887  0.8365  1.5632 -0.5703
10713SOL     OW33588   3.754   5.143   5.403 -0.1026  0.0187  0.3071
10713SOL    HW133589   3.710   5.152   5.488 -0.7803 -0.3458 -0.0016
10713SOL    HW233590   3.694   5.091   5.350  1.0716 -1.2356  0.1517
10714SOL     OW33591   2.268   2.935   0.470 -0.1826  0.2098  0.2721
10714SOL    HW133592   2.230   2.872   0.531  3.0115 -1.3330  0.8756
10714SOL    HW233593   2.342   2.973   0.519 -1.3823  3.8300 -0.4068
10715SOL     OW33594   6.073   6.594   0.968 -0.4363 -0.2766 -0.1165
10715SOL    HW133595   6.150   6.580   1.024  1.0697  0.8198 -1.7955
10715SOL    HW233596   6.082   6.685   0.937 -2.9229  0.1899  0.3360
10716SOL     OW33597   7.079   5.423   4.754  0.2137  0.0556  0.5430
10716SOL    HW133598   6.994   5.387   4.777 -0.1639 -0.9285 -2.0642
10716SOL    HW233599   7.140   5.349   4.760  0.4755  0.2558  0.4154
10717SOL     OW33600   3.259   4.616   2.530 -0.1823 -0.4496 -0.2446
10717SOL    HW133601   3.263   4.704   2.493  0.9485 -0.3051  0.1676
10717SOL    HW233602   3.250   4.558   2.455  1.4758 -0.1263 -0.7275
10718SOL     OW33603   4.750   1.965   5.632 -0.5891 -0.5655 -0.4335
10718SOL    HW133604   4.764   2.038   5.692 -1.5632  0.7519 -1.7288
10718SOL    HW233605   4.806   1.895   5.666  0.9283  0.9878  0.4722
10719SOL     OW33606   2.450   6.237   0.867  0.1984 -0.1703 -0.1352
10719SOL    HW133607   2.523   6.175   0.860  0.7079  0.1146  1.9985
10719SOL    HW233608   2.374   6.189   0.833  1.0545 -1.0454 -0.8620
10720SOL     OW33609   3.605   0.356   6.489 -0.0426 -0.4462 -0.1718
10720SOL    HW133610   3.700   0.369   6.493 -0.3878  2.8327  0.1248
10720SOL    HW233611   3.572   0.387   6.573 -1.4591 -0.6026 -0.6357
10721SOL     OW33612   1.989   5.577   6.529  0.0659  0.3353  0.2179
10721SOL    HW133613   1.914   5.608   6.580 -0.7522 -2.5693  0.9756
10721SOL    HW233614   2.001   5.643   6.461 -1.5510  2.1630  1.6095
10722SOL     OW33615   4.868   0.175   4.823 -0.6885 -0.0656  0.4065
10722SOL    HW133616   4.824   0.231   4.759 -1.4164  1.2048  1.9394
10722SOL    HW233617   4.805   0.168   4.895  0.7587 -0.0142  1.7225
10723SOL     OW33618   3.982   1.488   5.741  0.3447 -0.1539 -0.2728
10723SOL    HW133619   3.924   1.540   5.685  0.0429  0.3042  0.4368
10723SOL    HW233620   4.044   1.552   5.777  0.8733 -0.5296 -0.5079
10724SOL     OW33621   0.898   4.873   5.635  0.0492  0.4271  0.0658
10724SOL    HW133622   0.830   4.808   5.619  0.1094  0.3745  0.0204
10724SOL    HW233623   0.926   4.856   5.725 -0.2174  0.6557  0.1909
10725SOL     OW33624   0.575   6.935   3.793  0.7505  0.2671 -0.0365
10725SOL    HW133625   0.661   6.937   3.836  1.3765  2.7567 -1.2315
10725SOL    HW233626   0.542   7.024   3.801 -0.1871  0.2207 -2.5288
10726SOL     OW33627   1.334   1.283   5.475 -0.3041 -0.0954 -1.1567
10726SOL    HW133628   1.251   1.302   5.430  0.0018  0.5529 -1.4514
10726SOL    HW233629   1.354   1.363   5.523 -0.3889 -0.6231 -0.2210
10727SOL     OW33630   2.484   1.669   3.309 -0.0876 -0.0743  0.0127
10727SOL    HW133631   2.504   1.612   3.382  0.1528  0.7805  0.6321
10727SOL    HW233632   2.569   1.694   3.273 -0.1579  0.4981  0.2309
10728SOL     OW33633   1.965   3.152   2.269 -0.5325  0.2292 -0.4651
10728SOL    HW133634   1.909   3.102   2.327  0.8892  0.5604  1.2778
10728SOL    HW233635   2.034   3.090   2.244 -0.9085  0.2090 -1.5042
10729SOL     OW33636   3.528   4.965   5.312 -0.4342 -0.1368 -0.3739
10729SOL    HW133637   3.548   4.872   5.327 -0.4931 -0.5558 -2.5909
10729SOL    HW233638   3.471   4.989   5.386  1.4989 -1.1450  1.5736
10730SOL     OW33639   3.076   5.777   6.204 -0.3266 -0.1747  0.4345
10730SOL    HW133640   2.983   5.798   6.199  0.0963  1.6522 -0.3686
10730SOL    HW233641   3.093   5.768   6.298 -1.2961 -0.5040  0.5875
10731SOL     OW33642   6.077   2.701   6.020  0.0117 -0.9114 -0.3288
10731SOL    HW133643   6.100   2.766   6.087  0.8972  1.7642 -3.0103
10731SOL    HW233644   6.161   2.663   5.994 -0.1990 -1.1828 -0.6250
10732SOL     OW33645   5.587   2.699   0.889 -0.1651 -0.1046  0.1776
10732SOL    HW133646   5.501   2.718   0.852 -1.2345 -1.2335  1.9386
10732SOL    HW233647   5.621   2.628   0.836 -0.4298  0.1612 -0.3572
10733SOL     OW33648   3.958   1.157   2.570 -0.7051 -0.0728 -0.4443
10733SOL    HW133649   3.970   1.193   2.658 -3.6907 -1.2002  0.5660
10733SOL    HW233650   3.954   1.234   2.513 -0.4355  0.7879  0.6603
10734SOL     OW33651   5.577   2.774   4.184 -0.6366  0.3869 -0.1363
10734SOL    HW133652   5.637   2.831   4.136 -1.1244  0.5863 -0.5264
10734SOL    HW233653   5.618   2.761   4.269 -0.1029  0.6153 -0.3546
10735SOL     OW33654   6.900   3.884   1.142  0.0994  0.0619 -0.2597
10735SOL    HW133655   6.833   3.822   1.172  0.1774  0.3666  0.5715
10735SOL    HW233656   6.944   3.838   1.070 -1.0878 -0.0868 -0.9248
10736SOL     OW33657   2.526   5.614   1.469  1.1565 -0.4171 -0.5293
10736SOL    HW133658   2.449   5.664   1.497  0.5274 -0.8045 -1.5174
10736SOL    HW233659   2.591   5.681   1.448  0.9154 -0.0676 -0.1881
10737SOL     OW33660   0.482   5.354   0.830 -0.9000 -0.1684  0.1796
10737SOL    HW133661   0.399   5.372   0.873 -0.7547  1.0143 -0.0099
10737SOL    HW233662   0.527   5.438   0.827 -0.3011 -0.5051 -1.0017
10738SOL     OW33663   3.652   3.354   5.503 -0.0101  0.2897 -0.0414
10738SOL    HW133664   3.730   3.327   5.550 -0.9986  0.5346  1.8036
10738SOL    HW233665   3.619   3.275   5.461  0.7318  0.0227 -0.1302
10739SOL     OW33666   2.968   0.357   3.292  0.2493  0.0918  0.4543
10739SOL    HW133667   2.946   0.285   3.352 -0.8381  0.6190  0.7191
10739SOL    HW233668   2.915   0.431   3.323  1.0809  0.9130 -0.0239
10740SOL     OW33669   3.434   7.136   4.066  0.2553  0.4428 -0.6318
10740SOL    HW133670   3.473   7.081   4.134 -0.4172  0.3925 -0.2862
10740SOL    HW233671   3.468   7.224   4.084  1.8468  0.0624 -1.5670
10741SOL     OW33672   3.106   3.256   0.796 -0.1973 -0.1817 -0.3150
10741SOL    HW133673   3.121   3.275   0.704  0.9094 -1.3840 -0.4154
10741SOL    HW233674   3.051   3.328   0.827 -0.0074  0.6091 -1.7360
10742SOL     OW33675   0.694   4.948   3.766  0.0391  0.1968 -0.1605
10742SOL    HW133676   0.740   4.892   3.704  1.4392  2.3984 -1.1962
10742SOL    HW233677   0.617   4.979   3.719 -0.1068  0.0853  0.0019
10743SOL     OW33678   5.345   6.740   4.536  0.2123  0.4034 -0.0268
10743SOL    HW133679   5.298   6.822   4.554  1.6053  1.5648 -1.3617
10743SOL    HW233680   5.304   6.706   4.456  2.3104  2.0985 -1.9581
10744SOL     OW33681   1.482   5.232   1.123  0.4293  0.1387 -0.4642
10744SOL    HW133682   1.440   5.153   1.155  1.3338 -0.7640 -1.4015
10744SOL    HW233683   1.425   5.263   1.053  1.3095 -1.1544 -1.8200
10745SOL     OW33684   3.826   2.020   1.448  0.2010  0.2272  0.0554
10745SOL    HW133685   3.748   1.978   1.411  1.4238 -0.6017 -1.6927
10745SOL    HW233686   3.872   2.056   1.372  1.2391  1.2156  1.1144
10746SOL     OW33687   0.710   6.479   1.728 -0.3181 -0.1398  0.3693
10746SOL    HW133688   0.791   6.524   1.752 -0.4053  0.4106 -0.3480
10746SOL    HW233689   0.640   6.541   1.746 -0.7406 -1.0561  2.1989
10747SOL     OW33690   3.337   4.422   4.383 -0.1333  0.1187  0.2700
10747SOL    HW133691   3.353   4.488   4.451  1.4255  0.8399 -0.7478
10747SOL    HW233692   3.317   4.473   4.304 -1.4097 -0.7037  0.0315
10748SOL     OW33693   1.257   2.330   0.176 -0.0551  0.1670  0.2752
10748SOL    HW133694   1.276   2.351   0.085  2.4611  3.5437  1.3906
10748SOL    HW233695   1.205   2.404   0.207  1.3249  0.4100  2.1706
10749SOL     OW33696   0.716   5.249   1.643  0.0063  0.5808 -0.0200
10749SOL    HW133697   0.797   5.200   1.629  0.4027  0.8071  1.2814
10749SOL    HW233698   0.743   5.341   1.645 -0.3566  0.6910 -0.1071
10750SOL     OW33699   4.076   2.187   1.848  0.1233 -0.0837 -0.4361
10750SOL    HW133700   4.067   2.278   1.821  0.3250  0.0633  0.0046
10750SOL    HW233701   4.045   2.185   1.938 -1.1269 -0.6907 -0.8532
10751SOL     OW33702   7.078   3.918   5.651 -0.1066 -0.1045 -0.0436
10751SOL    HW133703   7.062   3.989   5.589  0.8825  0.9212  0.8282
10751SOL    HW233704   7.047   3.952   5.735 -1.2685 -1.4061  0.0884
10752SOL     OW33705   3.587   0.959   0.079  0.0009  0.1501 -0.1289
10752SOL    HW133706   3.600   0.911  -0.002  1.6009  0.2942  0.0065
10752SOL    HW233707   3.611   0.897   0.148  3.9151  1.5246 -0.0084
10753SOL     OW33708   6.033   4.437   1.927 -0.2813 -0.5814 -0.0887
10753SOL    HW133709   6.042   4.407   1.836 -1.0006 -1.4327  0.0976
10753SOL    HW233710   6.044   4.532   1.922  2.5600 -0.8495 -0.6525
10754SOL     OW33711   3.775   2.153   4.670  0.2116  0.1151  0.3322
10754SOL    HW133712   3.749   2.235   4.713 -0.9722  0.9402 -1.8457
10754SOL    HW233713   3.871   2.152   4.678  0.2869  1.9215  0.0877
10755SOL     OW33714   1.096   6.101   3.581  0.2607 -0.1137  0.6148
10755SOL    HW133715   1.085   6.190   3.548  2.4202 -0.1871 -0.4585
10755SOL    HW233716   1.011   6.059   3.564 -0.1715  1.1817 -0.6554
10756SOL     OW33717   0.733   2.581   3.375 -0.8330  0.0713  0.2073
10756SOL    HW133718   0.665   2.637   3.336  2.4776  3.2005 -1.6406
10756SOL    HW233719   0.795   2.565   3.305  2.0816  0.3438  2.5135
10757SOL     OW33720   3.427   3.962   7.053  0.1994  0.6137  0.2579
10757SOL    HW133721   3.521   3.958   7.037  0.6998 -1.5836  3.0474
10757SOL    HW233722   3.418   4.022   7.127 -0.6410  0.8943 -0.0574
10758SOL     OW33723   4.687   2.126   4.731  0.2288 -0.1608 -0.1176
10758SOL    HW133724   4.773   2.129   4.690 -0.8670 -0.5873 -2.6928
10758SOL    HW233725   4.700   2.163   4.818  3.0177 -0.4227 -0.3323
10759SOL     OW33726   6.651   4.267   6.922 -0.3153 -0.1287  0.7325
10759SOL    HW133727   6.620   4.185   6.883  0.5098 -0.3193  0.4562
10759SOL    HW233728   6.728   4.242   6.973 -0.6458  0.3247  1.4785
10760SOL     OW33729   5.258   2.466   6.789  0.0288 -0.5154 -0.3292
10760SOL    HW133730   5.343   2.511   6.780  0.2923 -0.7182  0.9993
10760SOL    HW233731   5.202   2.531   6.831 -1.4255  0.7172 -3.7814
10761SOL     OW33732   4.907   3.389   2.384  0.6126 -0.2885  0.1284
10761SOL    HW133733   4.887   3.452   2.314  3.5191  2.0404  1.1462
10761SOL    HW233734   4.897   3.303   2.343 -1.5810  0.8525 -1.9589
10762SOL     OW33735   2.687   6.253   3.598  0.2623  0.1878  0.2223
10762SOL    HW133736   2.781   6.263   3.583  0.5080  0.2618  1.6676
10762SOL    HW233737   2.647   6.284   3.517  1.4386  1.3152  0.0291
10763SOL     OW33738   0.700   0.128   4.624  0.1608  0.5494  0.5350
10763SOL    HW133739   0.649   0.197   4.667 -1.5968  0.1377 -0.7772
10763SOL    HW233740   0.647   0.104   4.547  1.3370 -1.3889  0.2791
10764SOL     OW33741   4.502   1.511   0.294 -0.2169 -0.4314  0.2469
10764SOL    HW133742   4.436   1.579   0.309 -0.4211 -0.8304  1.2002
10764SOL    HW233743   4.454   1.442   0.248 -0.5302 -0.8087  1.1181
10765SOL     OW33744   2.042   7.099   2.957 -0.2231 -0.4908  0.2002
10765SOL    HW133745   2.066   7.131   2.869  0.4789  2.1232  1.2520
10765SOL    HW233746   1.947   7.103   2.958 -0.1967  1.0413  0.0361
10766SOL     OW33747   5.558   0.256   6.636  0.0567  0.6720  0.0522
10766SOL    HW133748   5.476   0.253   6.588  0.3456 -0.4987 -0.4005
10766SOL    HW233749   5.626   0.250   6.569  0.4573 -2.3137  0.5910
10767SOL     OW33750   5.178   3.669   5.646  0.1513  0.1170 -0.0359
10767SOL    HW133751   5.202   3.623   5.565  0.7515  0.2635  0.0553
10767SOL    HW233752   5.211   3.613   5.716  0.8195  0.6424  0.0765
10768SOL     OW33753   2.321   2.149   2.842 -0.2091  0.1960  0.1473
10768SOL    HW133754   2.249   2.208   2.821  0.2846  0.8097  0.1499
10768SOL    HW233755   2.397   2.206   2.851  0.1312 -0.3549  0.9097
10769SOL     OW33756   4.654   3.285   0.344 -0.7255 -0.4060  0.1691
10769SOL    HW133757   4.710   3.214   0.312 -0.0716 -0.9669  2.4138
10769SOL    HW233758   4.686   3.363   0.297  0.9597 -0.9799  0.3101
10770SOL     OW33759   7.126   0.930   0.548  0.0528  0.2858  0.2754
10770SOL    HW133760   7.217   0.941   0.575  0.1734 -0.3537  0.1502
10770SOL    HW233761   7.112   0.835   0.550 -1.1649  0.4484  2.1236
10771SOL     OW33762   7.058   3.215   2.935  0.7573  0.1914 -0.0116
10771SOL    HW133763   7.035   3.303   2.908 -1.4887 -0.5239 -0.6356
10771SOL    HW233764   6.975   3.174   2.959  1.6402 -1.9337 -0.3347
10772SOL     OW33765   5.838   0.846   5.633  0.0998  0.4613  0.2420
10772SOL    HW133766   5.780   0.786   5.680  0.4585  0.2375  0.4118
10772SOL    HW233767   5.792   0.867   5.552 -0.1142  0.0988  0.2679
10773SOL     OW33768   5.536   3.608   5.680  0.3543  0.1567  0.1489
10773SOL    HW133769   5.525   3.690   5.631  1.6659 -0.2327 -0.8421
10773SOL    HW233770   5.514   3.631   5.770  0.1555  1.4661 -0.2129
10774SOL     OW33771   6.048   5.527   6.967  0.0249  0.4466 -0.0684
10774SOL    HW133772   6.102   5.448   6.969  0.6942  0.9039  0.2284
10774SOL    HW233773   5.960   5.495   6.985  0.0545 -0.4067 -1.2418
10775SOL     OW33774   7.038   2.096   0.624 -0.2736 -0.1110 -0.1963
10775SOL    HW133775   6.957   2.110   0.575 -0.2993  0.0192 -0.1190
10775SOL    HW233776   7.034   2.005   0.652 -0.0796 -0.2888 -0.7555
10776SOL     OW33777   4.502   4.496   1.736 -0.7307 -0.2508 -0.2393
10776SOL    HW133778   4.517   4.425   1.798 -0.0220 -0.0901 -0.2167
10776SOL    HW233779   4.465   4.567   1.788  0.3740  0.0783  0.1137
10777SOL     OW33780   2.093   2.745   1.305  0.6232 -0.2319 -0.0086
10777SOL    HW133781   2.022   2.718   1.363  0.9829 -0.1377  0.4919
10777SOL    HW233782   2.081   2.840   1.296  0.9992 -0.1250  0.5294
10778SOL     OW33783   5.298   0.740   6.846  0.8897  0.0978 -0.4601
10778SOL    HW133784   5.212   0.746   6.805 -0.2773 -0.0994  1.8305
10778SOL    HW233785   5.354   0.797   6.792 -0.5806  0.0658 -2.1188
10779SOL     OW33786   2.513   6.500   0.799  0.2248 -0.1441 -0.2123
10779SOL    HW133787   2.443   6.547   0.843  0.5141 -0.2298  0.3585
10779SOL    HW233788   2.498   6.408   0.821 -0.2594 -0.3095 -1.2078
10780SOL     OW33789   0.950   6.482   5.235 -0.1956  0.0785 -0.3347
10780SOL    HW133790   0.924   6.416   5.299 -0.1399 -1.9047 -2.2658
10780SOL    HW233791   1.037   6.509   5.262  0.4134 -1.7687 -0.3294
10781SOL     OW33792   1.642   4.986   5.829  0.1743 -0.3252 -0.5185
10781SOL    HW133793   1.591   5.055   5.787  0.3521 -0.6876 -1.3499
10781SOL    HW233794   1.578   4.933   5.876 -0.0204  0.1220 -0.2768
10782SOL     OW33795   1.685   6.437   2.818 -0.0710 -0.4535 -0.4152
10782SOL    HW133796   1.681   6.350   2.778 -0.0153 -0.5992 -0.1043
10782SOL    HW233797   1.755   6.482   2.771  1.5538 -1.3861  1.0104
10783SOL     OW33798   2.091   1.149   1.674  0.1126 -0.1858 -0.3542
10783SOL    HW133799   2.115   1.076   1.731  0.4047  0.5055  0.4278
10783SOL    HW233800   2.057   1.107   1.595 -1.0890 -1.1855  0.6412
10784SOL     OW33801   1.303   6.793   4.179 -0.0210  0.0553  0.4373
10784SOL    HW133802   1.385   6.750   4.154 -0.7140 -1.6984  1.0249
10784SOL    HW233803   1.237   6.724   4.173 -1.3414  1.2527  0.6689
10785SOL     OW33804   1.378   2.409   7.083  0.3547 -0.6984  0.3410
10785SOL    HW133805   1.438   2.342   7.051  0.2019 -0.4044 -0.5711
10785SOL    HW233806   1.434   2.470   7.131  0.8150 -0.3797 -0.5795
10786SOL     OW33807   3.303   2.315   6.696  0.4677 -0.0633  0.5196
10786SOL    HW133808   3.374   2.272   6.649  0.1416 -1.3027  1.0997
10786SOL    HW233809   3.251   2.242   6.733 -1.3342  0.7754 -0.2283
10787SOL     OW33810   5.722   3.873   4.208  0.1410 -0.1034  0.0946
10787SOL    HW133811   5.649   3.811   4.215 -2.0840  2.4504  1.9318
10787SOL    HW233812   5.714   3.909   4.120 -0.3968 -0.3327  0.0412
10788SOL     OW33813   0.963   2.246   3.749  0.1562 -0.7258  0.2927
10788SOL    HW133814   0.943   2.295   3.669  1.5871 -1.7900 -0.7835
10788SOL    HW233815   0.937   2.156   3.728  0.2634 -0.9604  1.1501
10789SOL     OW33816   5.976   4.064   6.756 -0.4418 -0.2668 -0.0047
10789SOL    HW133817   5.956   4.018   6.674 -2.3021 -0.6624  0.6195
10789SOL    HW233818   5.960   3.999   6.824 -2.6769  1.1111  0.8759
10790SOL     OW33819   6.212   6.071   0.695  0.6403 -0.1696 -0.2802
10790SOL    HW133820   6.288   6.067   0.637  2.6925 -0.5539  2.2475
10790SOL    HW233821   6.247   6.103   0.778 -1.9513 -0.5604  1.0605
10791SOL     OW33822   0.005   0.448   2.721 -0.4434 -0.1206  0.5174
10791SOL    HW133823   0.100   0.458   2.724 -0.6580  2.6016  1.0789
10791SOL    HW233824  -0.017   0.463   2.629 -0.4498  0.9039  0.6819
10792SOL     OW33825   0.661   0.542   1.263 -0.2296 -0.3977  0.3975
10792SOL    HW133826   0.733   0.591   1.302  0.2631 -1.2918  0.6164
10792SOL    HW233827   0.673   0.553   1.169  0.4436 -0.8998  0.4223
10793SOL     OW33828   6.679   6.561   6.948 -0.0790 -0.3403 -0.2318
10793SOL    HW133829   6.656   6.577   7.039 -1.1300 -0.5432 -0.4546
10793SOL    HW233830   6.614   6.608   6.897  0.8487  0.2651 -0.8974
10794SOL     OW33831   5.175   0.270   3.577  0.1504 -0.3074  0.0658
10794SOL    HW133832   5.084   0.254   3.552  0.2169 -2.1326  0.8085
10794SOL    HW233833   5.223   0.194   3.545  0.9348 -0.6813  1.9718
10795SOL     OW33834   0.209   6.698   1.847 -0.4625 -0.0127  0.3293
10795SOL    HW133835   0.269   6.717   1.920  1.2322 -2.6694 -0.2521
10795SOL    HW233836   0.254   6.732   1.770 -0.6052 -0.2812  0.1257
10796SOL     OW33837   5.672   5.876   1.910 -0.2759 -0.2004 -0.0920
10796SOL    HW133838   5.682   5.932   1.832  0.8139 -0.4642 -0.1583
10796SOL    HW233839   5.691   5.935   1.983 -1.2723  0.0401 -0.0188
10797SOL     OW33840   0.650   5.218   5.865  0.3893  0.1658  0.3032
10797SOL    HW133841   0.713   5.187   5.929 -0.3036 -2.3103 -0.0672
10797SOL    HW233842   0.697   5.216   5.782  0.8914  2.0494  0.5136
10798SOL     OW33843   3.297   5.255   1.038  0.3775 -0.6365 -0.4225
10798SOL    HW133844   3.313   5.209   0.955 -2.7830 -1.4460 -0.7089
10798SOL    HW233845   3.306   5.188   1.105  0.3932 -0.5837 -0.3720
10799SOL     OW33846   1.760   1.077   2.392 -0.7103 -0.0730 -0.2581
10799SOL    HW133847   1.688   1.071   2.330  1.5962  1.2728 -3.3122
10799SOL    HW233848   1.809   0.995   2.380 -0.5733 -0.0696  0.2542
10800SOL     OW33849   1.314   0.885   4.365 -0.4634  0.7724  0.6956
10800SOL    HW133850   1.325   0.863   4.457 -1.4347 -0.4685  0.5383
10800SOL    HW233851   1.222   0.910   4.357 -0.9148 -1.0186 -0.2700
10801SOL     OW33852   6.847   7.103   5.478 -0.0907  0.3615 -0.1030
10801SOL    HW133853   6.815   7.077   5.392  0.7431 -0.4221 -0.1848
10801SOL    HW233854   6.923   7.048   5.494  0.3533  1.1723  0.7206
10802SOL     OW33855   6.297   0.943   6.786  0.6120 -0.1395  0.0366
10802SOL    HW133856   6.207   0.959   6.812  0.4029 -2.1039  0.7659
10802SOL    HW233857   6.299   0.958   6.691  0.3430  2.9947  0.4363
10803SOL     OW33858   1.322   0.127   3.891 -0.5292 -0.3386  0.0535
10803SOL    HW133859   1.297   0.042   3.856 -0.0339 -0.0737 -0.9950
10803SOL    HW233860   1.267   0.189   3.844 -2.7075 -0.1890  2.5754
10804SOL     OW33861   5.453   4.176   6.666  0.1642 -0.1237 -0.4750
10804SOL    HW133862   5.521   4.111   6.651  2.1891  0.8844  3.0161
10804SOL    HW233863   5.427   4.163   6.757 -2.4861  1.2660 -0.9246
10805SOL     OW33864   2.335   0.681   1.617 -0.0591  0.0894  0.3121
10805SOL    HW133865   2.345   0.775   1.601  1.7159 -0.2119 -0.5410
10805SOL    HW233866   2.291   0.647   1.539 -0.4254  0.1614  0.4863
10806SOL     OW33867   5.771   5.441   0.007  0.2838 -0.0066  0.2404
10806SOL    HW133868   5.680   5.467  -0.002  0.9598  1.9471 -2.0522
10806SOL    HW233869   5.777   5.358  -0.041  0.0358  0.8764 -1.4142
10807SOL     OW33870   2.302   5.556   1.232 -0.6803  0.1480  0.4481
10807SOL    HW133871   2.371   5.571   1.297 -1.0528 -0.4751  1.0062
10807SOL    HW233872   2.337   5.489   1.174  0.2038  1.6767 -0.8603
10808SOL     OW33873   5.953   6.495   0.334  0.2305  0.0382  0.0048
10808SOL    HW133874   5.887   6.507   0.403  2.1883  1.4228  1.7698
10808SOL    HW233875   6.024   6.448   0.378  1.0306 -0.1109 -1.4104
10809SOL     OW33876   0.450   0.199   4.326  0.9085  0.1261  0.4065
10809SOL    HW133877   0.473   0.253   4.250  0.9629  1.3217  1.2411
10809SOL    HW233878   0.524   0.138   4.335  0.0761 -1.2504 -1.5433
10810SOL     OW33879   5.846   2.340   3.063 -0.2134 -0.5523 -0.5725
10810SOL    HW133880   5.919   2.321   3.004 -0.7838 -0.4363 -1.3235
10810SOL    HW233881   5.877   2.412   3.117  0.5977 -1.1638 -0.2037
10811SOL     OW33882   2.382   1.389   4.608  0.2908 -0.2336 -0.4866
10811SOL    HW133883   2.318   1.447   4.566  1.0680  1.1623  0.1857
10811SOL    HW233884   2.403   1.433   4.690  0.8030 -1.5674  0.1265
10812SOL     OW33885   0.288   6.257   1.507  0.1212  0.3180 -0.3700
10812SOL    HW133886   0.268   6.237   1.598 -0.3598 -0.9201 -0.7223
10812SOL    HW233887   0.332   6.342   1.509 -0.5504  0.6467  0.9342
10813SOL     OW33888   5.731   2.119   6.549  0.1580 -0.3885  0.8066
10813SOL    HW133889   5.673   2.045   6.564 -0.9185  0.2065 -0.1889
10813SOL    HW233890   5.673   2.190   6.522  1.1683  0.7888  1.6036
10814SOL     OW33891   0.995   1.723   4.973  0.0920  0.4925  0.2408
10814SOL    HW133892   1.076   1.717   4.922  0.5956  0.1700  1.0567
10814SOL    HW233893   0.942   1.651   4.941  0.3795  0.3302  0.1227
10815SOL     OW33894   5.129   6.153   5.961 -0.8619  0.4784  0.1873
10815SOL    HW133895   5.153   6.216   5.892  0.9868 -1.2545 -0.8606
10815SOL    HW233896   5.067   6.094   5.918 -1.3749  0.6608  0.6790
10816SOL     OW33897   4.293   0.351   6.008  0.0469  0.1098  0.0653
10816SOL    HW133898   4.315   0.265   5.973  0.2402  0.4898 -0.7938
10816SOL    HW233899   4.219   0.380   5.954  1.7023  1.6095 -1.5356
10817SOL     OW33900   6.713   6.273   1.056  0.5886 -0.6303  0.2353
10817SOL    HW133901   6.749   6.356   1.086  2.1161 -0.9612 -0.5688
10817SOL    HW233902   6.707   6.219   1.134 -0.1895  0.1338  0.7241
10818SOL     OW33903   3.448   3.258   5.352 -0.8471 -0.0553 -0.1285
10818SOL    HW133904   3.376   3.209   5.390 -1.7972 -0.8093 -2.6960
10818SOL    HW233905   3.465   3.215   5.268  1.3743  1.2410 -0.4244
10819SOL     OW33906   4.336   5.801   2.515  0.2093  0.0367 -0.5724
10819SOL    HW133907   4.324   5.896   2.518  1.7401  0.2907 -1.6043
10819SOL    HW233908   4.359   5.783   2.424  0.3614 -1.2757 -0.2907
10820SOL     OW33909   3.172   0.855   2.343 -0.3295  0.2329 -0.4912
10820SOL    HW133910   3.107   0.786   2.355 -2.3418  1.5464 -2.9555
10820SOL    HW233911   3.121   0.934   2.329  1.7543  1.3450 -2.4815
10821SOL     OW33912   4.647   5.069   3.838 -0.5097 -0.1067 -0.0096
10821SOL    HW133913   4.687   5.075   3.924 -2.3048  1.3534  0.7786
10821SOL    HW233914   4.563   5.026   3.853 -0.8413  0.1431 -1.0340
10822SOL     OW33915   5.069   1.457   3.459 -0.0392 -0.2144 -0.0811
10822SOL    HW133916   5.091   1.370   3.426 -1.6944 -0.1081 -1.6175
10822SOL    HW233917   4.975   1.466   3.441 -0.1093  1.5195  0.9457
10823SOL     OW33918   1.250   1.489   2.407 -0.1775  0.5614 -0.5279
10823SOL    HW133919   1.158   1.503   2.427 -0.0563  1.3311 -0.4835
10823SOL    HW233920   1.291   1.574   2.420  0.5044  0.2794 -0.7590
10824SOL     OW33921   2.553   4.111   0.350 -0.2564 -0.1015 -0.4587
10824SOL    HW133922   2.476   4.143   0.304 -0.4246  0.5466  0.2544
10824SOL    HW233923   2.524   4.030   0.392 -1.3703  1.4635  1.9981
10825SOL     OW33924   2.248   4.868   1.828 -0.2975 -0.0085  0.0256
10825SOL    HW133925   2.205   4.953   1.817 -0.5374 -0.2743 -1.2307
10825SOL    HW233926   2.272   4.841   1.740  2.2291 -0.0201  0.6161
10826SOL     OW33927   2.929   5.011   6.745  0.0996 -0.1807  0.3827
10826SOL    HW133928   3.008   5.035   6.795 -1.2768  1.4519  1.9220
10826SOL    HW233929   2.910   4.922   6.773  1.6290 -0.7821 -0.3726
10827SOL     OW33930   6.562   1.965   0.414 -0.1483 -0.2586 -0.4122
10827SOL    HW133931   6.589   2.021   0.487 -0.5957 -0.5535 -0.0161
10827SOL    HW233932   6.555   1.877   0.452 -0.0216 -0.4865 -0.8969
10828SOL     OW33933   6.035   2.466   5.088  0.7043  0.1895 -0.1393
10828SOL    HW133934   5.977   2.536   5.059 -0.4449 -0.7681 -0.2169
10828SOL    HW233935   6.079   2.502   5.166  0.1772  1.0101 -0.2069
10829SOL     OW33936   0.704   5.156   0.699 -0.0600  0.1260 -0.7341
10829SOL    HW133937   0.665   5.132   0.784 -1.5059  0.2218 -1.3432
10829SOL    HW233938   0.706   5.251   0.700  0.6766  0.1199 -0.5060
10830SOL     OW33939   5.821   0.179   5.949  0.0894 -0.2579  0.3257
10830SOL    HW133940   5.769   0.170   6.029 -0.0810 -1.8361  0.0727
10830SOL    HW233941   5.901   0.223   5.977  0.0453 -0.8096  1.3812
10831SOL     OW33942   4.351   1.219   1.091  0.5092  0.1069  0.1145
10831SOL    HW133943   4.305   1.206   1.009  0.6086  0.5526 -0.0141
10831SOL    HW233944   4.442   1.200   1.071  0.2677 -1.8277  0.6187
10832SOL     OW33945   2.159   6.665   3.632  0.3112  0.0509 -0.3097
10832SOL    HW133946   2.238   6.717   3.649  0.9911 -0.9039 -0.4610
10832SOL    HW233947   2.191   6.588   3.584 -0.6804 -0.4732 -0.1551
10833SOL     OW33948   5.342   2.547   4.376 -0.1480 -0.1220 -0.4153
10833SOL    HW133949   5.318   2.458   4.400 -0.5382  0.0764 -0.0652
10833SOL    HW233950   5.281   2.571   4.306 -0.2661 -0.0057 -0.2721
10834SOL     OW33951   4.632   5.953   0.481 -0.0527 -0.3888  0.4206
10834SOL    HW133952   4.540   5.953   0.453 -0.1484 -2.2572  0.6297
10834SOL    HW233953   4.678   6.002   0.413 -0.9414 -1.0068 -0.6614
10835SOL     OW33954   1.749   4.671   4.704 -0.1304 -0.4215  0.1598
10835SOL    HW133955   1.677   4.678   4.641  0.0203  1.4808  0.1584
10835SOL    HW233956   1.728   4.735   4.771  0.3597 -1.5385  1.4375
10836SOL     OW33957   3.066   1.695   6.068  0.2807 -0.1356  0.5262
10836SOL    HW133958   3.036   1.722   5.981 -0.0767  1.7656  1.1866
10836SOL    HW233959   3.117   1.769   6.100  1.2696 -1.2167  1.5508
10837SOL     OW33960   2.174   3.299   3.244 -0.3540 -0.2321 -0.0055
10837SOL    HW133961   2.118   3.227   3.212  1.1202 -0.8130 -1.4578
10837SOL    HW233962   2.170   3.364   3.174  0.6333 -0.2178 -0.0562
10838SOL     OW33963   6.281   0.294   4.711 -0.1541 -0.1881  0.1599
10838SOL    HW133964   6.318   0.230   4.650  0.4135 -0.8545  1.1703
10838SOL    HW233965   6.311   0.379   4.678  0.8425 -0.5961 -0.0282
10839SOL     OW33966   2.035   4.630   5.471  0.0783 -0.3835 -0.3968
10839SOL    HW133967   1.978   4.702   5.499 -0.5387 -1.0647  0.1483
10839SOL    HW233968   2.110   4.673   5.431  0.0599  0.5918  0.5641
10840SOL     OW33969   5.383   4.951   2.838 -0.2942  0.4100 -0.0654
10840SOL    HW133970   5.418   5.040   2.834 -0.5504  0.4761 -1.1732
10840SOL    HW233971   5.460   4.895   2.849  0.0450  0.6552 -1.0889
10841SOL     OW33972   1.331   1.540   5.057 -0.3438  0.8825  0.6074
10841SOL    HW133973   1.286   1.458   5.078 -0.1183  0.3788 -0.7335
10841SOL    HW233974   1.424   1.520   5.067 -0.2734  0.8692  0.0067
10842SOL     OW33975   1.513   6.995   4.778  0.0138  0.7232 -0.1516
10842SOL    HW133976   1.468   6.957   4.854 -1.4709 -0.2077 -1.4507
10842SOL    HW233977   1.442   7.030   4.724  0.8401 -0.4342 -2.0693
10843SOL     OW33978   4.060   2.534   6.553 -0.0325  0.6375  0.6006
10843SOL    HW133979   4.154   2.551   6.543  0.1185 -0.4784 -0.0501
10843SOL    HW233980   4.018   2.594   6.490  0.1931  1.4951  1.2491
10844SOL     OW33981   0.026   0.401   2.232 -0.1814 -0.4731  0.0596
10844SOL    HW133982  -0.031   0.333   2.197 -2.1090  0.5262  1.0702
10844SOL    HW233983   0.111   0.359   2.239 -1.1720 -2.6236  0.1651
10845SOL     OW33984   5.680   6.066   5.795  0.5531  0.3563 -1.2018
10845SOL    HW133985   5.718   6.008   5.861  0.8048  2.7458  0.9128
10845SOL    HW233986   5.585   6.059   5.809  0.5190 -0.4074 -1.7681
10846SOL     OW33987   5.691   3.551   2.513 -0.0255 -0.3100  0.6499
10846SOL    HW133988   5.624   3.540   2.446 -0.7893 -0.1710  1.3833
10846SOL    HW233989   5.764   3.592   2.467 -0.9743  0.8644  0.1502
10847SOL     OW33990   5.832   6.475   1.009 -0.0308 -0.0086 -0.8038
10847SOL    HW133991   5.871   6.390   1.030 -0.0481 -0.4399 -2.3932
10847SOL    HW233992   5.904   6.537   1.016 -0.3850  0.2422  2.2355
10848SOL     OW33993   2.109   6.843   6.243 -0.0839 -0.0605 -0.3204
10848SOL    HW133994   2.026   6.811   6.208  0.0820  0.0632 -0.8329
10848SOL    HW233995   2.131   6.781   6.313 -0.5407 -0.1680 -0.2677
10849SOL     OW33996   6.204   0.664   2.720 -0.7102 -0.5511 -0.1649
10849SOL    HW133997   6.274   0.613   2.679  0.5039  0.0735  1.0434
10849SOL    HW233998   6.160   0.601   2.777 -0.5709 -0.7427 -0.2669
10850SOL     OW33999   6.747   6.078   1.259  0.6359  0.7187 -0.0637
10850SOL    HW134000   6.684   6.038   1.319  0.0135  1.6687 -0.0561
10850SOL    HW234001   6.782   6.005   1.209 -1.9209  0.2865 -1.4237
10851SOL     OW34002   1.972   0.081   6.263 -0.2543  0.6758  0.0335
10851SOL    HW134003   2.004   0.061   6.175  2.2707 -0.1929  1.0668
10851SOL    HW234004   1.969   0.177   6.266  0.1689  0.7296 -0.8167
10852SOL     OW34005   1.732   3.719   6.152 -0.5128 -0.4613  0.3939
10852SOL    HW134006   1.799   3.753   6.093 -1.0690 -0.7485 -0.4187
10852SOL    HW234007   1.653   3.715   6.098 -0.7533 -1.8457  0.8227
10853SOL     OW34008   1.949   7.143   1.702  0.0370 -0.0811  0.3604
10853SOL    HW134009   1.990   7.152   1.616  2.7597 -0.8269  1.4851
10853SOL    HW234010   1.937   7.233   1.733 -0.9708  0.1936 -0.7505
10854SOL     OW34011   1.999   6.211   5.828 -0.3283  0.0036  0.1143
10854SOL    HW134012   1.921   6.156   5.824 -0.8307  0.7211 -0.3859
10854SOL    HW234013   2.042   6.197   5.744 -0.0835 -0.1610  0.2683
10855SOL     OW34014   4.986   4.871   6.268 -0.0163 -0.7286 -0.3711
10855SOL    HW134015   4.967   4.922   6.347 -0.6467 -2.7810  0.8604
10855SOL    HW234016   5.081   4.879   6.256 -0.0048  0.1056  0.2092
10856SOL     OW34017   5.919   3.853   6.931 -0.0402 -0.0314 -0.1005
10856SOL    HW134018   5.859   3.806   6.988  0.1242 -0.7969 -0.5411
10856SOL    HW234019   5.986   3.788   6.908  0.2565  0.4504 -0.6177
10857SOL     OW34020   1.294   0.932   1.885  0.0594  0.1135  0.1532
10857SOL    HW134021   1.262   0.984   1.958 -0.7306 -0.9834  0.6030
10857SOL    HW234022   1.295   0.842   1.917  1.0891 -0.2186 -0.7166
10858SOL     OW34023   2.120   3.522   4.198  0.1731 -0.2168  0.0555
10858SOL    HW134024   2.115   3.551   4.289 -2.2627 -0.2231 -0.0108
10858SOL    HW234025   2.179   3.584   4.156  2.3571 -0.9635  1.8630
10859SOL     OW34026   6.117   0.814   2.487 -0.1792  0.0142  0.4564
10859SOL    HW134027   6.061   0.752   2.441 -1.6844  1.9917 -0.4963
10859SOL    HW234028   6.087   0.811   2.577 -0.5436 -0.2994  0.3272
10860SOL     OW34029   2.892   5.186   3.637  0.4926 -0.0037  0.5366
10860SOL    HW134030   2.939   5.196   3.720  1.8316 -0.1057 -0.1905
10860SOL    HW234031   2.849   5.100   3.644  1.4302 -0.4642  0.7239
10861SOL     OW34032   1.895   2.973   2.972  0.1377  0.9558 -0.0210
10861SOL    HW134033   1.824   2.910   2.981 -0.0028  0.6015 -2.8307
10861SOL    HW234034   1.961   2.928   2.920  1.3945  2.0822  0.5467
10862SOL     OW34035   3.097   4.754   0.165  0.2823  0.2303 -0.4093
10862SOL    HW134036   3.128   4.809   0.094 -1.3808 -1.7851 -2.8497
10862SOL    HW234037   3.006   4.781   0.179  0.2920 -0.0592  0.2727
10863SOL     OW34038   5.110   5.262   1.832 -0.0959 -0.0185  0.4592
10863SOL    HW134039   5.181   5.210   1.869 -0.6795  1.1244  3.4593
10863SOL    HW234040   5.144   5.352   1.833 -1.0222  0.3399  0.4555
10864SOL     OW34041   5.904   0.062   6.895  0.1706  0.0699 -0.4579
10864SOL    HW134042   5.944   0.025   6.974 -0.3850 -0.8613 -0.5880
10864SOL    HW234043   5.958   0.029   6.823 -0.2335 -0.3695 -0.5646
10865SOL     OW34044   0.080   3.950   2.904 -0.1435 -0.2765  0.4889
10865SOL    HW134045   0.057   4.040   2.929  0.4030  0.2190 -0.7207
10865SOL    HW234046   0.107   3.956   2.812 -1.2866 -1.8794 -0.0104
10866SOL     OW34047   5.967   7.108   5.022  0.0411  0.4593  0.1952
10866SOL    HW134048   5.889   7.091   4.969  0.6431  0.4465 -0.7099
10866SOL    HW234049   6.011   7.180   4.976  0.4446  0.6169  0.8245
10867SOL     OW34050   4.466   6.762   3.511 -0.2902 -0.1529 -0.4917
10867SOL    HW134051   4.479   6.855   3.490  0.2544 -0.3691 -1.1663
10867SOL    HW234052   4.554   6.725   3.507 -0.5560 -0.7718 -0.5741
10868SOL     OW34053   6.461   4.166   6.305 -0.1096 -0.1455  0.5364
10868SOL    HW134054   6.433   4.149   6.215 -0.6288  1.1680  0.4263
10868SOL    HW234055   6.381   4.195   6.349  0.1387 -0.8041  1.4322
10869SOL     OW34056   0.334   2.700   0.186  0.6806 -0.5709  0.2498
10869SOL    HW134057   0.242   2.691   0.210  0.3115 -0.6545 -1.1280
10869SOL    HW234058   0.352   2.794   0.195  0.1596 -0.3957 -0.5138
10870SOL     OW34059   6.827   6.669   1.816 -0.0523 -0.1947  0.2481
10870SOL    HW134060   6.739   6.678   1.853 -0.9332 -1.6770 -1.3662
10870SOL    HW234061   6.842   6.753   1.772 -1.1054 -0.3050 -0.3532
10871SOL     OW34062   0.456   0.126   0.761  0.2839  0.3626 -0.0042
10871SOL    HW134063   0.487   0.206   0.720  0.6391  0.4090  0.3482
10871SOL    HW234064   0.398   0.086   0.696  1.6440 -0.1028 -0.9836
10872SOL     OW34065   1.032   4.667   3.231  0.6206  0.2179 -0.8640
10872SOL    HW134066   0.948   4.632   3.260  0.2434  1.8097  0.0695
10872SOL    HW234067   1.076   4.592   3.189  0.3711 -1.7794  2.0868
10873SOL     OW34068   2.067   0.254   3.449 -0.2927 -0.1450 -0.4261
10873SOL    HW134069   2.145   0.209   3.417  1.0092  0.7952  1.2641
10873SOL    HW234070   2.002   0.185   3.459  0.9587 -1.3020  0.0210
10874SOL     OW34071   2.768   6.000   1.119 -0.3117  0.4348  0.0511
10874SOL    HW134072   2.755   5.909   1.148  2.4619  0.1599  0.7363
10874SOL    HW234073   2.731   6.003   1.031 -2.2225 -0.7982  0.7574
10875SOL     OW34074   6.061   3.543   0.724  0.3082 -0.1972  0.2744
10875SOL    HW134075   6.027   3.615   0.776  0.4062  0.5333 -0.6455
10875SOL    HW234076   6.156   3.545   0.739  0.4320  0.5173 -0.5274
10876SOL     OW34077   2.772   0.506   0.031 -0.1522 -0.4255 -0.5068
10876SOL    HW134078   2.816   0.435  -0.016 -0.7833 -1.2019  0.0478
10876SOL    HW234079   2.698   0.464   0.074  0.6210  0.1699  1.5136
10877SOL     OW34080   1.587   6.895   2.562  0.1141 -0.1741 -0.2102
10877SOL    HW134081   1.519   6.844   2.519 -0.4773 -0.1318  0.6526
10877SOL    HW234082   1.577   6.876   2.655  0.1432  1.1811  0.0992
10878SOL     OW34083   2.555   6.743   6.405  0.0098 -0.4190 -0.0225
10878SOL    HW134084   2.521   6.726   6.493  2.1948  0.7730  1.1334
10878SOL    HW234085   2.547   6.658   6.360 -2.0361 -0.8069  0.9534
10879SOL     OW34086   1.926   5.669   0.752 -0.3761 -0.5645 -0.0637
10879SOL    HW134087   1.871   5.633   0.822 -0.4800 -0.0122  0.1382
10879SOL    HW234088   1.972   5.742   0.793 -1.5464  0.7105 -0.9550
10880SOL     OW34089   1.456   4.267   3.027  0.1068  0.1491 -0.2888
10880SOL    HW134090   1.437   4.206   3.098 -1.1352  2.8200  1.8530
10880SOL    HW234091   1.371   4.286   2.988  0.4313  0.6840 -0.7533
10881SOL     OW34092   5.696   2.865   3.377  0.2125  0.1098 -0.3721
10881SOL    HW134093   5.692   2.882   3.282 -1.8293 -0.2869 -0.4044
10881SOL    HW234094   5.722   2.949   3.414  3.8601 -0.4022 -1.3867
10882SOL     OW34095   0.044   1.834   5.924 -0.1968  0.1984 -0.0049
10882SOL    HW134096   0.002   1.899   5.868 -1.1641  0.1773  0.6708
10882SOL    HW234097  -0.019   1.819   5.995  0.4050 -0.7955  0.3409
10883SOL     OW34098   2.168   1.007   4.056 -0.2114 -0.0102 -0.4254
10883SOL    HW134099   2.145   0.985   3.966  0.3757 -1.9020 -0.1604
10883SOL    HW234100   2.122   0.942   4.110 -1.8713  2.0686  0.8115
10884SOL     OW34101   1.414   5.688   6.042  0.1472  0.4111  0.9498
10884SOL    HW134102   1.452   5.612   6.086 -1.1633 -1.1347 -0.4660
10884SOL    HW234103   1.337   5.654   5.997  0.7236  2.1090 -1.5255
10885SOL     OW34104   4.583   0.837   4.351 -0.6237  0.6383  0.2772
10885SOL    HW134105   4.672   0.870   4.338 -1.3337  2.6660  0.2640
10885SOL    HW234106   4.595   0.748   4.386  1.3972  1.2726  1.3343
10886SOL     OW34107   2.694   0.610   1.597 -0.0635  0.1343  0.0967
10886SOL    HW134108   2.770   0.655   1.635 -0.1717 -0.3238  0.8922
10886SOL    HW234109   2.624   0.624   1.662 -0.3837 -0.2810 -0.1574
10887SOL     OW34110   7.123   0.668   2.143  0.2713  0.5242  0.0140
10887SOL    HW134111   7.184   0.672   2.069 -1.8652  2.0197 -1.8012
10887SOL    HW234112   7.116   0.575   2.164  1.4387  0.1320 -1.2180
10888SOL     OW34113   7.014   4.522   3.441  0.0468  0.0781 -0.5844
10888SOL    HW134114   7.063   4.500   3.519  0.6131 -1.0264 -1.2247
10888SOL    HW234115   6.923   4.530   3.471  0.3171  0.0739  0.2500
10889SOL     OW34116   0.588   2.545   1.144  0.1735  0.0980 -0.3678
10889SOL    HW134117   0.669   2.584   1.176 -0.6217  0.5438  1.2635
10889SOL    HW234118   0.524   2.617   1.148 -0.0865  0.0659 -2.7176
10890SOL     OW34119   4.831   7.042   2.193 -0.2420 -0.2102 -0.0084
10890SOL    HW134120   4.822   7.121   2.246 -1.2184 -0.8928  0.8814
10890SOL    HW234121   4.861   6.975   2.254  1.3332 -0.3750 -0.9116
10891SOL     OW34122   1.467   0.884   3.418  0.0401 -0.4426  0.3387
10891SOL    HW134123   1.453   0.973   3.450  0.6436 -0.8211  1.7365
10891SOL    HW234124   1.498   0.835   3.494  1.7848 -1.3599 -0.8728
10892SOL     OW34125   5.315   5.682   3.123  0.4553 -0.1394 -0.0319
10892SOL    HW134126   5.362   5.714   3.200 -1.4071  1.3670  0.5499
10892SOL    HW234127   5.330   5.748   3.056 -0.4391  0.1187  0.0144
10893SOL     OW34128   2.255   1.292   3.261  0.0796  0.6133  0.2232
10893SOL    HW134129   2.199   1.254   3.329 -1.0726  1.4729 -0.2262
10893SOL    HW234130   2.195   1.315   3.190  0.9189  2.0602 -0.0561
10894SOL     OW34131   3.592   3.129   2.347  0.3854  0.2108 -0.1652
10894SOL    HW134132   3.570   3.170   2.431 -0.5075 -1.5311  0.5037
10894SOL    HW234133   3.628   3.201   2.294 -3.1057  2.4188  0.0975
10895SOL     OW34134   0.200   0.926   4.139 -0.1797  0.2468 -0.8693
10895SOL    HW134135   0.207   0.884   4.224  0.2003 -0.4242 -1.2207
10895SOL    HW234136   0.278   0.897   4.091 -1.3457 -0.9570 -2.1150
10896SOL     OW34137   2.075   1.891   5.967 -0.0946  0.4261 -0.1152
10896SOL    HW134138   2.126   1.810   5.979 -0.6458 -0.3162 -2.3026
10896SOL    HW234139   2.123   1.939   5.900  0.6309  2.3304  1.6829
10897SOL     OW34140   0.908   0.971   2.399  0.1397 -0.0249  0.0303
10897SOL    HW134141   0.902   0.913   2.475 -2.3606  1.4752  1.1126
10897SOL    HW234142   0.970   1.039   2.425  0.9852 -0.6780 -0.1994
10898SOL     OW34143   1.685   1.819   5.139 -0.2912  0.3643  0.4053
10898SOL    HW134144   1.773   1.857   5.144 -0.3360  0.4514  0.5490
10898SOL    HW234145   1.697   1.727   5.162 -0.2329  0.3698  0.3966
10899SOL     OW34146   1.392   4.489   3.782 -0.0280  0.1460 -0.1441
10899SOL    HW134147   1.473   4.461   3.825 -0.4135  0.4059  0.7686
10899SOL    HW234148   1.370   4.572   3.824 -0.3172  0.5078 -0.9877
10900SOL     OW34149   1.301   6.815   6.826 -0.0386  0.2319  0.1735
10900SOL    HW134150   1.269   6.742   6.773 -0.1090  0.4697 -0.1082
10900SOL    HW234151   1.308   6.888   6.766 -1.9394  1.0359  0.8522
10901SOL     OW34152   0.798   1.521   4.914  0.4729  0.5469  0.0676
10901SOL    HW134153   0.707   1.536   4.887  0.3724  0.0170  0.0971
10901SOL    HW234154   0.840   1.486   4.836  0.2192 -0.8502  0.5405
10902SOL     OW34155   1.408   3.530   2.120 -0.5721 -0.0563 -0.0684
10902SOL    HW134156   1.398   3.621   2.094 -0.2949  0.7768  2.4696
10902SOL    HW234157   1.319   3.501   2.140 -0.3956  0.8180  2.4035
10903SOL     OW34158   5.278   6.993   2.604 -0.5104  0.1298  0.5042
10903SOL    HW134159   5.245   6.953   2.524 -0.4435  0.8963  0.0779
10903SOL    HW234160   5.237   6.944   2.675  0.5007 -1.4772  0.0387
10904SOL     OW34161   4.618   4.952   0.781  0.3866  0.6578  0.3437
10904SOL    HW134162   4.704   4.938   0.821  1.4864  1.3992 -1.6115
10904SOL    HW234163   4.619   4.899   0.701 -0.7385  1.1615 -0.0295
10905SOL     OW34164   0.123   5.867   2.651 -0.0092 -0.5004  0.0064
10905SOL    HW134165   0.096   5.954   2.620  1.2334  0.3085  1.0588
10905SOL    HW234166   0.055   5.808   2.621 -0.0286  0.5684 -2.2343
10906SOL     OW34167   2.740   6.125   3.102 -0.1884 -0.0531 -0.2534
10906SOL    HW134168   2.790   6.163   3.173 -0.9714 -2.3249  1.6636
10906SOL    HW234169   2.805   6.106   3.034  0.4827  2.7216 -0.4975
10907SOL     OW34170   2.478   1.439   0.662 -0.2053  0.3210  0.2920
10907SOL    HW134171   2.503   1.484   0.743 -2.1055 -0.2557  1.2503
10907SOL    HW234172   2.501   1.347   0.678  0.4400  0.3752 -0.2803
10908SOL     OW34173   4.303   6.208   3.384 -0.2691  0.0094  0.1580
10908SOL    HW134174   4.293   6.252   3.299 -2.6602  0.8218  0.7799
10908SOL    HW234175   4.349   6.272   3.439 -1.0388  0.5414  0.1947
10909SOL     OW34176   4.898   2.213   2.200  0.0038  0.1113 -0.0655
10909SOL    HW134177   4.925   2.209   2.108 -0.7183 -0.3304 -0.2626
10909SOL    HW234178   4.904   2.306   2.222 -0.8439  0.3691 -0.8805
10910SOL     OW34179   3.118   3.353   0.185 -0.1548 -0.1944  0.3011
10910SOL    HW134180   3.211   3.334   0.172 -0.5211 -0.7745 -1.7674
10910SOL    HW234181   3.088   3.284   0.245  0.7279 -0.0094  0.9802
10911SOL     OW34182   2.122   2.991   6.984  0.1638  0.1346 -0.1393
10911SOL    HW134183   2.027   2.991   6.977  0.0288  2.9517  0.4942
10911SOL    HW234184   2.153   2.985   6.894 -0.7621  2.6519 -0.7078
10912SOL     OW34185   1.246   1.388   6.630 -0.2997 -0.0985 -0.0145
10912SOL    HW134186   1.274   1.463   6.682 -1.6865 -0.0159  0.6382
10912SOL    HW234187   1.228   1.423   6.543 -1.4367  0.4224  0.4255
10913SOL     OW34188   5.895   2.851   1.393 -0.0301 -0.5163  0.4058
10913SOL    HW134189   5.897   2.945   1.377 -2.8552 -0.3844  0.1914
10913SOL    HW234190   5.939   2.813   1.318 -0.5322  0.6074 -0.4906
10914SOL     OW34191   0.713   1.251   6.868 -0.6340 -0.1284 -0.1368
10914SOL    HW134192   0.722   1.318   6.800 -0.7676 -0.7400 -0.7817
10914SOL    HW234193   0.767   1.282   6.941 -0.7277  0.6902 -0.4100
10915SOL     OW34194   2.412   1.837   2.054  0.1742 -0.2409  0.0647
10915SOL    HW134195   2.339   1.875   2.103  0.1974  1.2333 -0.9746
10915SOL    HW234196   2.371   1.778   1.991  0.0180 -0.7533  0.6387
10916SOL     OW34197   4.839   5.294   3.443  0.3558  0.1345 -0.2822
10916SOL    HW134198   4.748   5.283   3.471  0.0731  2.8829  0.0899
10916SOL    HW234199   4.886   5.317   3.523  0.9362  0.9715 -0.8577
10917SOL     OW34200   6.366   5.317   3.878  0.2100  0.5000 -0.4081
10917SOL    HW134201   6.370   5.273   3.793  0.1842  0.1016 -0.2082
10917SOL    HW234202   6.457   5.338   3.898  0.5173 -1.4777  0.5173
10918SOL     OW34203   1.449   1.380   2.062 -0.0782 -0.4086  0.0713
10918SOL    HW134204   1.536   1.352   2.035 -0.2845  0.2832 -1.4466
10918SOL    HW234205   1.446   1.474   2.042 -1.0711 -0.3630  0.3566
10919SOL     OW34206   6.745   4.190   6.423  0.1467 -0.6067  0.1891
10919SOL    HW134207   6.715   4.212   6.512 -1.6663 -1.8567 -0.0460
10919SOL    HW234208   6.669   4.207   6.368  0.5138 -1.9600 -0.7884
10920SOL     OW34209   4.754   1.024   0.126 -0.3916  0.5310  0.2802
10920SOL    HW134210   4.784   1.089   0.062  0.7788 -0.3619 -0.1152
10920SOL    HW234211   4.783   0.940   0.090  1.3502  0.0815  2.4830
10921SOL     OW34212   5.510   0.014   2.207 -0.4740 -0.5979 -0.5948
10921SOL    HW134213   5.487  -0.073   2.175 -0.3699 -0.3106 -1.4728
10921SOL    HW234214   5.596   0.004   2.246 -0.3069 -0.8193 -1.0133
10922SOL     OW34215   3.951   3.716   6.993  0.4441 -0.5347  1.2951
10922SOL    HW134216   4.019   3.726   7.060  0.6866  2.3616  0.7443
10922SOL    HW234217   3.922   3.805   6.974 -1.4567 -1.4580 -0.6204
10923SOL     OW34218   5.498   3.108   3.964  0.2756 -0.1087 -0.4226
10923SOL    HW134219   5.492   3.098   4.059  1.2782  0.4394 -0.2879
10923SOL    HW234220   5.407   3.119   3.935 -0.1046 -1.0061  0.3780
10924SOL     OW34221   2.853   4.530   1.397  0.3877  0.2166  0.0668
10924SOL    HW134222   2.843   4.459   1.459  0.5985 -1.1621 -1.4130
10924SOL    HW234223   2.767   4.540   1.357  0.8470 -0.6382 -1.1862
10925SOL     OW34224   6.587   0.814   2.466 -0.4233 -0.5738  0.2126
10925SOL    HW134225   6.609   0.862   2.546 -0.3763  0.1354 -0.2104
10925SOL    HW234226   6.547   0.880   2.409  1.1451 -0.6354 -1.0278
10926SOL     OW34227   3.560   0.709   2.232 -0.4972  0.3508 -0.0878
10926SOL    HW134228   3.615   0.749   2.165  0.9789 -2.2726 -0.5772
10926SOL    HW234229   3.555   0.775   2.302  0.0525  2.1396 -1.6590
10927SOL     OW34230   5.781   5.235   6.970 -0.1553 -0.0882 -0.0659
10927SOL    HW134231   5.807   5.259   6.881  1.6885  0.1127  0.4807
10927SOL    HW234232   5.794   5.140   6.974  0.8282  0.0432  0.2767
10928SOL     OW34233   0.598   3.670   2.284  0.0479  0.0275  0.4635
10928SOL    HW134234   0.687   3.692   2.259 -0.3317  1.9526  0.6606
10928SOL    HW234235   0.558   3.635   2.204  0.6563  0.1562  0.0998
10929SOL     OW34236   6.930   2.058   5.874  0.3302 -0.2251 -0.4759
10929SOL    HW134237   6.936   1.963   5.861 -0.7003 -0.6502  1.6684
10929SOL    HW234238   6.836   2.077   5.873  0.4264  0.4606  0.8489
10930SOL     OW34239   6.937   6.197   0.160  0.3561 -0.3215 -0.0870
10930SOL    HW134240   7.004   6.264   0.149 -1.0050  1.1805  0.3577
10930SOL    HW234241   6.916   6.198   0.253 -0.1753 -0.8709 -0.1899
10931SOL     OW34242   6.681   3.404   2.763 -0.0735 -0.2125 -0.6255
10931SOL    HW134243   6.674   3.470   2.832  0.7009 -0.2640 -0.4813
10931SOL    HW234244   6.642   3.444   2.686  1.6059  0.9733 -0.9214
10932SOL     OW34245   1.395   4.425   1.857 -0.2798 -0.2924 -0.0015
10932SOL    HW134246   1.380   4.407   1.764  0.3301  0.8267 -0.3396
10932SOL    HW234247   1.359   4.513   1.870 -1.0882 -0.7577  1.0197
10933SOL     OW34248   5.480   5.736   1.150  0.1555 -0.4239 -0.2237
10933SOL    HW134249   5.399   5.752   1.101  0.5151 -0.8846 -0.9746
10933SOL    HW234250   5.472   5.793   1.227 -1.1896 -0.9600  0.0721
10934SOL     OW34251   5.430   5.080   4.598 -0.1020 -0.3060 -0.2882
10934SOL    HW134252   5.461   5.103   4.685 -0.3360 -1.1160  0.0207
10934SOL    HW234253   5.347   5.034   4.613  0.1804 -1.0414 -0.8876
10935SOL     OW34254   1.684   2.270   2.477  0.0156 -0.2411  0.2200
10935SOL    HW134255   1.688   2.337   2.408 -2.0235 -0.1253  0.1286
10935SOL    HW234256   1.775   2.246   2.493  0.6004  0.0485 -2.2054
10936SOL     OW34257   5.375   3.771   5.421 -0.1159  0.5483 -0.2867
10936SOL    HW134258   5.302   3.816   5.462 -1.1140  0.6435 -2.0742
10936SOL    HW234259   5.446   3.835   5.421  0.0807  0.3770  1.6618
10937SOL     OW34260   2.601   1.842   2.877 -0.3447 -0.3195  0.3591
10937SOL    HW134261   2.611   1.749   2.896  0.7251 -0.1957  0.4288
10937SOL    HW234262   2.516   1.865   2.916  0.5318 -0.7027  2.6572
10938SOL     OW34263   6.491   3.285   1.402 -0.0726  0.7057 -0.3659
10938SOL    HW134264   6.397   3.306   1.402 -0.4012 -0.7047 -0.2369
10938SOL    HW234265   6.528   3.343   1.335 -0.7048  2.5868  0.8358
10939SOL     OW34266   6.396   2.441   4.756  0.2375  0.7172  0.3200
10939SOL    HW134267   6.332   2.502   4.721 -0.7258  0.5648  1.7351
10939SOL    HW234268   6.443   2.490   4.823 -1.5781 -0.4126  2.5735
10940SOL     OW34269   6.826   3.165   2.753  0.0703 -0.0150  0.4429
10940SOL    HW134270   6.758   3.101   2.773 -0.2577 -0.5072 -1.8804
10940SOL    HW234271   6.787   3.250   2.776 -0.5821 -0.4452  0.9388
10941SOL     OW34272   6.654   1.061   6.190 -0.2570 -0.1267  0.8403
10941SOL    HW134273   6.707   1.076   6.268  0.7536 -0.7622  0.2968
10941SOL    HW234274   6.563   1.073   6.219  0.1651  0.8443  1.8201
10942SOL     OW34275   4.837   2.895   1.362 -0.7131 -0.2155  0.4251
10942SOL    HW134276   4.896   2.891   1.286 -0.5773  1.0327  0.4469
10942SOL    HW234277   4.765   2.836   1.340  0.0528 -1.0142 -0.0239
10943SOL     OW34278   6.374   3.890   6.212  0.7169 -0.0107 -0.4866
10943SOL    HW134279   6.398   3.964   6.156  0.5022  1.5768  1.4311
10943SOL    HW234280   6.366   3.816   6.151  0.2496  1.6569 -2.5691
10944SOL     OW34281   6.759   3.180   0.028  0.2461 -0.2769  0.0470
10944SOL    HW134282   6.708   3.188   0.109  1.5391 -0.1620  0.8658
10944SOL    HW234283   6.775   3.270   0.001 -1.6737 -0.2838 -1.3471
10945SOL     OW34284   4.213   7.140   4.535 -0.3287 -0.3563 -0.2598
10945SOL    HW134285   4.269   7.175   4.466  2.8393  0.5541  2.4574
10945SOL    HW234286   4.127   7.177   4.517  0.8510  1.6000 -2.5032
10946SOL     OW34287   7.059   0.031   1.179 -0.2086  0.2429  0.5645
10946SOL    HW134288   7.110   0.111   1.166 -0.2781  0.4389  1.4122
10946SOL    HW234289   7.124  -0.038   1.194 -0.0027 -0.4637 -2.8274
10947SOL     OW34290   6.390   6.981   7.031  0.2495 -0.4652  0.0219
10947SOL    HW134291   6.341   6.949   7.106  0.9613  0.2747  0.8215
10947SOL    HW234292   6.325   6.989   6.961 -0.5852 -0.3745  0.7990
10948SOL     OW34293   3.303   5.834   2.479 -0.0821  0.1312 -0.6168
10948SOL    HW134294   3.261   5.898   2.421  1.0414  0.3090 -1.2579
10948SOL    HW234295   3.381   5.879   2.511  0.1954 -0.5717 -0.2931
10949SOL     OW34296   0.230   0.022   6.900 -1.0632 -0.0786 -0.4564
10949SOL    HW134297   0.305  -0.032   6.924 -2.2374 -1.1332  1.0746
10949SOL    HW234298   0.228   0.020   6.805  0.4025 -0.6440 -0.4909
10950SOL     OW34299   2.736   0.417   5.211 -0.1659  0.1667 -0.2136
10950SOL    HW134300   2.776   0.436   5.296 -0.5639  0.3172 -0.0594
10950SOL    HW234301   2.800   0.361   5.167 -0.0336 -0.0567  0.2532
10951SOL     OW34302   6.796   3.176   0.901 -0.4365  0.5880 -0.0577
10951SOL    HW134303   6.819   3.110   0.966 -1.2183  1.1352  0.7986
10951SOL    HW234304   6.716   3.143   0.860  1.6511 -1.2915 -2.9954
10952SOL     OW34305   3.215   2.183   3.387 -0.1184 -0.0427  0.0230
10952SOL    HW134306   3.236   2.257   3.329 -0.5761  0.2055  0.1640
10952SOL    HW234307   3.298   2.159   3.427  0.2589 -0.4077 -0.9558
10953SOL     OW34308   3.209   5.644   0.177  0.9721  0.1113  0.5389
10953SOL    HW134309   3.279   5.597   0.132  0.0894 -1.0715  0.3309
10953SOL    HW234310   3.129   5.596   0.153  0.1994  0.8948  1.4525
10954SOL     OW34311   1.436   1.951   6.041 -0.1058  0.6095 -0.5201
10954SOL    HW134312   1.532   1.943   6.043 -0.0534  1.2727  0.2442
10954SOL    HW234313   1.420   2.044   6.057 -0.8987  0.3035  0.5649
10955SOL     OW34314   5.613   1.301   1.505  0.4447 -0.5854 -0.2485
10955SOL    HW134315   5.628   1.370   1.440  1.0102 -0.3276  0.1524
10955SOL    HW234316   5.519   1.307   1.525  0.8587  1.5036  1.3814
10956SOL     OW34317   5.381   2.985   1.811  0.1582  0.1807 -0.4790
10956SOL    HW134318   5.304   2.930   1.798  0.3207  0.1881 -1.5579
10956SOL    HW234319   5.450   2.943   1.760  0.4211  1.1031 -0.9053
10957SOL     OW34320   5.626   0.336   2.306 -0.4313  0.1552 -0.2611
10957SOL    HW134321   5.689   0.367   2.371 -0.2450 -1.0977  0.1987
10957SOL    HW234322   5.671   0.262   2.264 -1.4913 -0.5999 -0.0892
10958SOL     OW34323   2.908   6.566   4.845 -0.2800  0.4443 -0.2061
10958SOL    HW134324   2.839   6.582   4.910 -0.3492  2.0245 -0.6150
10958SOL    HW234325   2.986   6.546   4.897 -0.3496  1.6243  0.3922
10959SOL     OW34326   0.191   3.766   5.233 -0.3107 -0.1765 -0.2595
10959SOL    HW134327   0.272   3.793   5.189  0.5160  0.6215  1.6522
10959SOL    HW234328   0.163   3.843   5.282 -0.9259 -1.1487  0.9841
10960SOL     OW34329   3.904   5.804   0.774 -0.2995 -0.1984 -0.2017
10960SOL    HW134330   4.000   5.810   0.778 -0.1510 -0.9121 -1.8963
10960SOL    HW234331   3.885   5.713   0.798 -0.5243 -0.1508 -0.2035
10961SOL     OW34332   1.609   6.334   5.140  0.5954  0.0051  0.3462
10961SOL    HW134333   1.639   6.352   5.230  0.7496 -0.9874  0.5070
10961SOL    HW234334   1.546   6.263   5.150 -2.5549  2.5709  0.1001
10962SOL     OW34335   7.004   0.954   1.837  0.3072 -0.1191  0.4853
10962SOL    HW134336   6.912   0.944   1.861 -0.0328 -2.2455 -1.4412
10962SOL    HW234337   7.029   0.870   1.800  2.5595  0.9420 -0.5987
10963SOL     OW34338   1.484   1.941   6.450  0.0413  0.1186  0.2339
10963SOL    HW134339   1.527   1.949   6.535  1.8976 -1.6575 -0.4617
10963SOL    HW234340   1.477   1.847   6.435 -1.5120  0.3880 -0.9901
10964SOL     OW34341   1.917   4.525   3.592 -0.4202  0.7547  0.2425
10964SOL    HW134342   1.978   4.451   3.584  1.4648  2.3310 -1.3350
10964SOL    HW234343   1.842   4.499   3.538  1.0318  0.6672 -1.8837
10965SOL     OW34344   2.082   3.918   6.792  0.1724  0.4545 -0.5283
10965SOL    HW134345   2.095   3.825   6.776 -1.9405 -0.4374  2.1316
10965SOL    HW234346   2.130   3.962   6.721  1.7331 -2.5894 -1.5236
10966SOL     OW34347   0.822   4.811   1.156 -0.0738  0.1881 -0.1719
10966SOL    HW134348   0.771   4.805   1.238  0.7305  1.4534  0.4548
10966SOL    HW234349   0.879   4.735   1.158  0.6172  0.7059  0.9463
10967SOL     OW34350   2.012   3.971   0.579  0.0719 -0.2951 -0.1983
10967SOL    HW134351   1.992   4.006   0.492 -0.4730  1.5732  0.6239
10967SOL    HW234352   2.027   4.048   0.633 -0.7154 -1.3619  1.6353
10968SOL     OW34353   1.081   2.269   3.982 -0.0883  0.3931 -0.1225
10968SOL    HW134354   1.010   2.242   4.041  0.3605 -0.2665  0.1254
10968SOL    HW234355   1.043   2.260   3.894 -0.3202  0.0611  0.0087
10969SOL     OW34356   5.623   6.181   3.307 -0.1871 -0.7767 -0.9377
10969SOL    HW134357   5.705   6.228   3.325  0.7190 -2.3797 -0.7032
10969SOL    HW234358   5.580   6.174   3.392  0.5086 -1.8452 -0.6601
10970SOL     OW34359   0.303   6.367   0.770  0.2840 -0.0600 -0.4941
10970SOL    HW134360   0.286   6.273   0.762 -3.0878  0.5500 -2.1589
10970SOL    HW234361   0.285   6.403   0.683  2.1957  2.1006 -0.1005
10971SOL     OW34362   0.528   5.510   1.725  0.0121 -0.3719  0.6869
10971SOL    HW134363   0.535   5.459   1.806 -1.2445  0.6276  1.4537
10971SOL    HW234364   0.436   5.536   1.720  0.1333 -0.1734 -0.9200
10972SOL     OW34365   6.345   1.077   1.976 -0.0038  0.1398  0.0830
10972SOL    HW134366   6.334   1.125   1.894  0.5134 -1.3317 -0.8645
10972SOL    HW234367   6.272   1.015   1.978  0.0747  0.0609  0.6609
10973SOL     OW34368   4.990   7.109   2.805 -0.1071  0.6178 -0.2475
10973SOL    HW134369   4.963   7.017   2.801  0.5284  0.4574 -1.0043
10973SOL    HW234370   5.086   7.106   2.802 -0.1056  1.3560 -1.7257
10974SOL     OW34371   2.089   2.664   1.004  0.2735 -0.0042 -0.3715
10974SOL    HW134372   2.045   2.626   1.081  0.5205 -1.6147 -1.0000
10974SOL    HW234373   2.072   2.758   1.012  1.2681  0.0505  2.2748
10975SOL     OW34374   5.321   3.572   4.469  0.2044 -0.6888 -0.0493
10975SOL    HW134375   5.246   3.523   4.437 -0.0807 -0.4305  0.2200
10975SOL    HW234376   5.308   3.577   4.564 -0.8038  1.5731 -0.2345
10976SOL     OW34377   2.503   1.396   6.457 -0.3420  0.0488 -0.2438
10976SOL    HW134378   2.434   1.462   6.454 -0.3601 -0.0084 -1.4309
10976SOL    HW234379   2.457   1.314   6.438  0.1560  0.1249 -1.9686
10977SOL     OW34380   0.973   6.861   3.568 -0.1491  0.0870  0.2708
10977SOL    HW134381   0.972   6.811   3.487  1.9150 -0.6112  0.6172
10977SOL    HW234382   0.950   6.950   3.542 -3.1207 -0.7892 -0.4780
10978SOL     OW34383   1.008   2.668   6.197 -0.4494  0.1888  0.2361
10978SOL    HW134384   1.078   2.689   6.134  0.9501 -1.6219  1.0814
10978SOL    HW234385   1.036   2.709   6.278 -1.5217  1.2921  0.0731
10979SOL     OW34386   6.649   3.351   4.841 -0.4493 -0.2979  0.2767
10979SOL    HW134387   6.661   3.312   4.927  0.9765 -1.5547 -0.4337
10979SOL    HW234388   6.627   3.442   4.858  1.0442 -0.1977  1.9524
10980SOL     OW34389   5.235   6.177   1.658 -0.2992  0.0690 -0.7293
10980SOL    HW134390   5.316   6.227   1.651  0.2490 -0.6842  0.0459
10980SOL    HW234391   5.262   6.090   1.687 -1.1242 -1.0105 -2.9389
10981SOL     OW34392   5.484   5.707   6.871 -0.3541  0.4221  0.2015
10981SOL    HW134393   5.534   5.787   6.886 -1.0947  0.8871  0.2420
10981SOL    HW234394   5.538   5.656   6.810 -0.6198  1.6941 -1.1664
10982SOL     OW34395   0.783   6.074   0.170  0.1280 -0.4705 -0.7298
10982SOL    HW134396   0.789   6.040   0.080  0.1497  0.4789 -1.1077
10982SOL    HW234397   0.717   6.143   0.164  1.9347  1.3390 -0.6075
10983SOL     OW34398   2.319   4.818   2.747  0.0952 -0.0354 -0.2090
10983SOL    HW134399   2.231   4.856   2.753 -0.4282 -1.4122  2.4963
10983SOL    HW234400   2.377   4.890   2.769 -0.6626  0.1119  1.5297
10984SOL     OW34401   3.644   3.614   0.346 -0.1165 -0.1866  0.2071
10984SOL    HW134402   3.622   3.523   0.365 -0.7617  0.0465  0.5925
10984SOL    HW234403   3.731   3.626   0.384 -0.2079 -0.5240  0.5269
10985SOL     OW34404   5.843   1.333   5.886  0.6010  0.0570  0.0824
10985SOL    HW134405   5.937   1.334   5.868  0.7377  0.6567  0.7778
10985SOL    HW234406   5.818   1.426   5.886 -0.2746 -0.1506 -1.4567
10986SOL     OW34407   2.677   3.978   5.741  0.3232 -0.2598 -0.1005
10986SOL    HW134408   2.657   3.966   5.648  0.6843 -0.0653 -0.2031
10986SOL    HW234409   2.700   3.891   5.772  1.1443 -0.1636 -0.4190
10987SOL     OW34410   4.902   6.466   1.804  0.0321  0.0267  0.4749
10987SOL    HW134411   4.901   6.499   1.894  0.1508 -0.0358  0.5001
10987SOL    HW234412   4.952   6.384   1.810  0.4207  0.2435  0.2780
10988SOL     OW34413   1.417   4.708   6.419 -0.1347 -0.1539  0.3717
10988SOL    HW134414   1.387   4.630   6.372 -0.1415  0.2018 -0.2209
10988SOL    HW234415   1.508   4.689   6.440  0.3773  0.3267 -1.2266
10989SOL     OW34416   1.692   7.050   0.909 -0.4909 -0.3177 -0.1899
10989SOL    HW134417   1.673   7.125   0.966 -1.2024  0.4613 -1.4131
10989SOL    HW234418   1.624   7.053   0.842  1.1802 -0.2857 -1.9817
10990SOL     OW34419   6.496   2.142   6.847  0.3776  0.5303  0.7287
10990SOL    HW134420   6.420   2.175   6.894 -0.1323 -0.6744  0.7826
10990SOL    HW234421   6.469   2.141   6.755  0.4535  0.4461  0.7072
10991SOL     OW34422   1.923   0.397   1.480 -0.5371  0.0012 -0.5838
10991SOL    HW134423   1.959   0.385   1.568 -1.4714  1.5538  0.0611
10991SOL    HW234424   1.851   0.459   1.493  0.4588  1.6895 -2.7105
10992SOL     OW34425   6.866   6.399   2.928  0.1879 -0.3122  0.3411
10992SOL    HW134426   6.912   6.361   2.854  0.3849 -1.3891  0.9960
10992SOL    HW234427   6.777   6.364   2.922  0.3235 -0.7543  0.8588
10993SOL     OW34428   4.955   2.051   0.207 -0.1393  0.7962  0.2951
10993SOL    HW134429   4.901   2.028   0.131  2.3485 -1.3571 -1.0019
10993SOL    HW234430   5.033   2.092   0.170  1.3306 -0.6974  1.5743
10994SOL     OW34431   0.306   6.305   0.268  0.0763 -0.2303  0.6664
10994SOL    HW134432   0.280   6.365   0.338  1.1901 -0.6340  1.4580
10994SOL    HW234433   0.255   6.225   0.284 -0.6021  0.1146  0.2568
10995SOL     OW34434   5.976   1.767   1.807 -0.9037  0.7041  0.3281
10995SOL    HW134435   5.966   1.850   1.761  1.0518  0.3752 -0.7884
10995SOL    HW234436   6.069   1.761   1.827 -1.3497 -0.1501  2.5458
10996SOL     OW34437   7.120   0.140   0.657  0.1416  0.7495  0.2334
10996SOL    HW134438   7.054   0.070   0.664 -0.6655  1.5035  0.2949
10996SOL    HW234439   7.204   0.093   0.657 -0.4086 -0.2862 -0.6466
10997SOL     OW34440   2.090   0.356   2.605  0.2698 -0.1477 -0.0415
10997SOL    HW134441   2.133   0.281   2.647  1.8975 -0.0470 -1.4561
10997SOL    HW234442   2.151   0.428   2.617 -1.0227  0.8615  0.7845
10998SOL     OW34443   4.060   2.695   3.426 -0.1243  0.3565 -0.5481
10998SOL    HW134444   4.128   2.736   3.374  1.7525 -0.4510  1.1484
10998SOL    HW234445   4.013   2.769   3.466 -0.4850  0.9230 -1.9740
10999SOL     OW34446   5.609   4.077   4.984  0.1897  0.0339  0.4575
10999SOL    HW134447   5.670   4.045   4.917  0.8344 -0.3337  1.2017
10999SOL    HW234448   5.561   4.147   4.940  1.1762  0.3681 -0.1412
11000SOL     OW34449   2.865   3.855   6.781 -0.2038 -0.5472 -0.3076
11000SOL    HW134450   2.906   3.835   6.865 -0.6764 -1.0645 -0.1963
11000SOL    HW234451   2.935   3.844   6.717  0.7757  1.9795  0.2010
11001SOL     OW34452   4.291   5.564   7.020  0.2461 -0.1326  0.8108
11001SOL    HW134453   4.303   5.497   6.953 -0.4474  1.9159 -1.5199
11001SOL    HW234454   4.196   5.568   7.034 -0.3977  3.4046 -2.7162
11002SOL     OW34455   5.878   5.622   2.011 -0.1223  0.0812  0.0272
11002SOL    HW134456   5.866   5.717   2.009 -0.3243  0.0478 -0.6783
11002SOL    HW234457   5.963   5.609   2.052  0.3611  0.6206 -0.7600
11003SOL     OW34458   4.348   5.880   4.844 -0.3698  0.1811 -0.3010
11003SOL    HW134459   4.391   5.828   4.911  0.1668  0.3837 -0.4851
11003SOL    HW234460   4.260   5.843   4.838 -0.5850  0.4765  0.8526
11004SOL     OW34461   6.821   2.371   0.531 -0.1707  0.8458  0.5226
11004SOL    HW134462   6.781   2.284   0.527  0.7138  0.3769  1.4947
11004SOL    HW234463   6.797   2.412   0.448 -1.6031  0.1239  0.5526
11005SOL     OW34464   0.567   2.997   1.811 -0.5736 -0.4216 -0.5346
11005SOL    HW134465   0.564   3.074   1.866 -2.7301  0.1244 -1.3467
11005SOL    HW234466   0.659   2.989   1.786 -0.4522  2.5658 -1.3559
11006SOL     OW34467   2.996   4.577   5.273  0.3458  0.2950 -0.2197
11006SOL    HW134468   2.986   4.487   5.240  2.2003 -0.6847  1.6388
11006SOL    HW234469   2.940   4.629   5.216 -0.8957 -2.0440 -1.3192
11007SOL     OW34470   1.227   3.586   4.746  0.2062 -0.0305 -0.0853
11007SOL    HW134471   1.224   3.676   4.712  1.4445  0.2830  0.5772
11007SOL    HW234472   1.247   3.532   4.670 -0.6348  0.2214 -0.5077
11008SOL     OW34473   6.107   1.102   0.096  0.1737  0.3230  0.0058
11008SOL    HW134474   6.202   1.112   0.086  0.3205  1.2497  1.8512
11008SOL    HW234475   6.070   1.181   0.058 -0.0781 -0.9556 -2.6292
11009SOL     OW34476   4.890   0.634   0.799  0.0360 -0.2758  0.4543
11009SOL    HW134477   4.961   0.597   0.746 -0.4721 -0.9073  0.1950
11009SOL    HW234478   4.832   0.675   0.735  0.1921  0.2899  0.6710
11010SOL     OW34479   0.673   0.748   4.174 -0.1362 -0.0988 -0.4653
11010SOL    HW134480   0.628   0.713   4.097  1.6287 -2.1141 -0.6917
11010SOL    HW234481   0.689   0.671   4.228  0.9395  0.8992  0.6825
11011SOL     OW34482   6.564   3.737   1.614 -0.2129 -0.1357 -0.1362
11011SOL    HW134483   6.490   3.796   1.626  1.2701  1.5439  1.4282
11011SOL    HW234484   6.598   3.723   1.703  2.8470  1.2883 -0.9317
11012SOL     OW34485   4.748   4.388   1.327 -0.2298  0.3739  0.2189
11012SOL    HW134486   4.843   4.395   1.319 -0.2207  1.2786  0.9801
11012SOL    HW234487   4.723   4.461   1.383 -1.4074  0.2802 -0.1598
11013SOL     OW34488   6.752   0.591   2.637 -0.4777 -0.0515 -0.2066
11013SOL    HW134489   6.815   0.630   2.697 -0.6932  1.0389 -0.6481
11013SOL    HW234490   6.702   0.530   2.690 -1.2591  1.5410  0.9785
11014SOL     OW34491   1.336   4.221   3.462  0.0785 -0.1563 -0.6525
11014SOL    HW134492   1.356   4.183   3.376  1.6138  0.3196 -0.5362
11014SOL    HW234493   1.413   4.274   3.483 -1.0800  1.2974  0.1541
11015SOL     OW34494   3.754   3.822   5.017  0.0762  0.2809 -0.2666
11015SOL    HW134495   3.849   3.825   5.030 -0.2727  1.0123  3.0548
11015SOL    HW234496   3.728   3.736   5.051 -0.5971  0.8230  0.6339
11016SOL     OW34497   1.401   6.522   2.073 -0.3841 -0.4777  0.3153
11016SOL    HW134498   1.441   6.597   2.116  0.2432 -0.5330 -0.1610
11016SOL    HW234499   1.333   6.560   2.017  1.6006  0.0229 -1.8997
11017SOL     OW34500   4.892   3.126   3.945 -0.3130 -0.5293 -0.2030
11017SOL    HW134501   4.927   3.038   3.963  0.2446 -0.6336 -1.6311
11017SOL    HW234502   4.852   3.118   3.858 -1.2058  0.3799  0.1024
11018SOL     OW34503   5.657   6.763   5.192 -0.5340 -0.2015 -0.8795
11018SOL    HW134504   5.649   6.707   5.270  0.8546  2.6244  1.5072
11018SOL    HW234505   5.593   6.833   5.207  0.2634  0.7698 -1.9259
11019SOL     OW34506   6.036   5.960   4.286 -0.0625  0.2686  0.1685
11019SOL    HW134507   6.051   5.871   4.316  0.5551 -0.4608 -2.1177
11019SOL    HW234508   6.121   6.003   4.292 -0.1654  0.4398  0.4298
11020SOL     OW34509   2.435   5.988   1.793  0.1796  0.2045  0.3816
11020SOL    HW134510   2.359   5.937   1.763 -0.6609  1.0315  1.0397
11020SOL    HW234511   2.497   5.983   1.721 -0.9734  0.4949 -0.6675
11021SOL     OW34512   1.227   2.671   2.811  0.1152 -0.0101 -0.2136
11021SOL    HW134513   1.151   2.728   2.816  0.1916 -0.0049  1.9155
11021SOL    HW234514   1.190   2.584   2.797 -0.1763  0.2178 -0.8627
11022SOL     OW34515   1.182   3.847   2.723 -0.6399  0.2837  0.2141
11022SOL    HW134516   1.088   3.831   2.709 -0.3181 -0.7188 -1.0164
11022SOL    HW234517   1.225   3.770   2.686  0.7316  1.2329 -0.2534
11023SOL     OW34518   3.463   0.260   6.015 -0.2785  0.0029 -0.0098
11023SOL    HW134519   3.454   0.209   5.934 -0.6976  0.3835 -0.2091
11023SOL    HW234520   3.544   0.228   6.054 -0.7781 -1.1657  0.1195
11024SOL     OW34521   0.908   3.133   1.360  0.3501  0.4036  0.3810
11024SOL    HW134522   0.825   3.141   1.407  1.6143  1.9570  2.5109
11024SOL    HW234523   0.884   3.098   1.275 -2.4926  0.7900  0.9361
11025SOL     OW34524   2.850   0.642   0.269  0.2334 -0.0582 -0.4015
11025SOL    HW134525   2.859   0.573   0.203  0.4800  1.3008 -1.8528
11025SOL    HW234526   2.938   0.678   0.279 -0.0410  0.5973 -0.2856
11026SOL     OW34527   6.971   4.345   5.910 -0.4133 -0.2173 -0.1201
11026SOL    HW134528   6.968   4.425   5.961  0.8769  0.3473 -0.8600
11026SOL    HW234529   7.033   4.364   5.839  0.3544 -2.0291 -0.0072
11027SOL     OW34530   3.386   2.113   1.483  0.0190 -0.1351 -0.0610
11027SOL    HW134531   3.384   2.116   1.387 -0.0983 -0.4174 -0.0693
11027SOL    HW234532   3.322   2.046   1.506 -0.8512  0.7917  0.2755
11028SOL     OW34533   3.679   6.457   3.406  0.1864 -0.4070 -0.2750
11028SOL    HW134534   3.613   6.445   3.338  0.6598 -1.5049 -0.5669
11028SOL    HW234535   3.682   6.373   3.452  1.5120 -0.4578 -0.4043
11029SOL     OW34536   5.363   7.090   4.369  0.9365  0.3490 -0.1910
11029SOL    HW134537   5.296   7.075   4.301 -1.0280 -0.2204  1.7364
11029SOL    HW234538   5.424   7.018   4.358  1.1961  0.7703 -1.8932
11030SOL     OW34539   2.784   4.971   4.338 -0.0123 -0.4229  0.0579
11030SOL    HW134540   2.854   4.925   4.292  1.8750  0.5389  1.8512
11030SOL    HW234541   2.776   5.054   4.292  0.0033 -0.5431 -0.1645
11031SOL     OW34542   3.977   3.748   5.621  0.2514 -0.4904 -0.0310
11031SOL    HW134543   3.983   3.840   5.594  1.6387  0.0593  1.9511
11031SOL    HW234544   3.949   3.702   5.541  1.7229  1.3101 -1.7059
11032SOL     OW34545   3.126   6.947   4.822  0.3613  0.1018  0.0591
11032SOL    HW134546   3.119   6.888   4.747  0.5309 -0.8624  0.7740
11032SOL    HW234547   3.061   7.015   4.805 -1.5590 -1.5536  0.2849
11033SOL     OW34548   5.696   4.897   4.011 -0.0811 -0.2320  0.3994
11033SOL    HW134549   5.607   4.924   3.991  0.5207  0.7015 -1.2302
11033SOL    HW234550   5.730   4.968   4.066  0.0064 -0.0093  0.0629
11034SOL     OW34551   5.977   5.156   2.461  0.0505  0.0844  0.0039
11034SOL    HW134552   5.975   5.195   2.373 -2.3116 -0.9975 -0.5060
11034SOL    HW234553   5.944   5.225   2.518  0.1317  0.2933 -0.1985
11035SOL     OW34554   3.061   5.570   4.555 -0.5256  0.0036  0.1041
11035SOL    HW134555   3.108   5.632   4.610 -1.6861  0.0692  1.0641
11035SOL    HW234556   3.022   5.623   4.486  0.8069 -0.0580 -0.7285
11036SOL     OW34557   4.764   3.803   1.837 -0.5455 -0.4877  0.2762
11036SOL    HW134558   4.729   3.883   1.798  0.6236  0.0773  0.3426
11036SOL    HW234559   4.691   3.741   1.837 -0.8717 -0.1471 -1.7929
11037SOL     OW34560   6.095   5.593   4.135 -0.1012 -0.4007 -0.4189
11037SOL    HW134561   6.084   5.498   4.130 -1.0110 -0.4250  1.3576
11037SOL    HW234562   6.096   5.622   4.043  0.6236 -2.1437 -1.0048
11038SOL     OW34563   3.520   5.993   2.573 -0.3063  0.1947  0.4935
11038SOL    HW134564   3.478   6.070   2.534  1.4145  0.8965 -0.0876
11038SOL    HW234565   3.515   6.007   2.667  0.2229  1.1811  0.3865
11039SOL     OW34566   5.616   1.298   1.933  0.3926  0.3813 -0.0443
11039SOL    HW134567   5.687   1.248   1.974 -0.3911 -0.3703  0.4174
11039SOL    HW234568   5.642   1.390   1.944  0.9764  0.1331  0.6995
11040SOL     OW34569   0.237   2.641   4.935  0.3833  0.2562 -0.1948
11040SOL    HW134570   0.283   2.579   4.991  1.4532 -0.3652 -1.6951
11040SOL    HW234571   0.147   2.640   4.968  0.6405 -1.2145  0.5659
11041SOL     OW34572   5.390   0.817   3.818 -0.0340  0.3432 -0.1579
11041SOL    HW134573   5.469   0.866   3.793 -0.2936 -0.4054 -2.6457
11041SOL    HW234574   5.345   0.799   3.736 -1.4618 -1.5524  0.9519
11042SOL     OW34575   2.728   3.160   5.217 -0.6442 -0.4814  0.2691
11042SOL    HW134576   2.714   3.135   5.309 -0.6330  0.4374  0.5361
11042SOL    HW234577   2.651   3.213   5.195  0.4515  1.3067  0.5098
11043SOL     OW34578   6.123   2.086   2.091  0.0412  0.1983  0.1932
11043SOL    HW134579   6.194   2.048   2.039 -1.3689 -1.7476 -0.4355
11043SOL    HW234580   6.110   2.024   2.162 -1.6250  0.0016 -0.2369
11044SOL     OW34581   2.123   3.395   5.802  0.0924 -0.2898  0.1553
11044SOL    HW134582   2.039   3.351   5.817  0.6864 -0.7505  2.5448
11044SOL    HW234583   2.185   3.348   5.858  1.0159  2.7603  1.9240
11045SOL     OW34584   6.645   5.010   6.496  0.6829 -0.7315  0.0196
11045SOL    HW134585   6.650   4.920   6.464  0.4310 -0.7505  0.0311
11045SOL    HW234586   6.679   5.006   6.586  1.1821 -0.7175 -0.1636
11046SOL     OW34587   7.044   3.135   0.297 -0.9202  0.3277 -0.3065
11046SOL    HW134588   7.058   3.229   0.286  0.7832  0.2747  1.0202
11046SOL    HW234589   6.960   3.128   0.343 -0.8925  1.2244 -0.1059
11047SOL     OW34590   7.002   2.105   6.187 -0.0099  0.0420  0.2325
11047SOL    HW134591   6.971   2.116   6.097  0.2856  0.0362  0.1313
11047SOL    HW234592   6.982   2.189   6.229  0.9866  0.4965 -0.1745
11048SOL     OW34593   6.589   3.867   4.292  0.0693  0.2457  0.3276
11048SOL    HW134594   6.675   3.862   4.250 -0.7013  2.9169 -1.8771
11048SOL    HW234595   6.532   3.815   4.236  0.0589 -0.9891  1.4308
11049SOL     OW34596   0.763   1.189   2.805 -0.2203 -0.0162 -0.7536
11049SOL    HW134597   0.745   1.201   2.711 -0.0426 -0.5729 -0.8591
11049SOL    HW234598   0.813   1.268   2.829 -1.3010  0.7215 -0.8400
11050SOL     OW34599   0.600   6.931   4.633 -0.2976  0.2070 -0.3039
11050SOL    HW134600   0.656   6.862   4.596  0.5612  0.7860 -0.1077
11050SOL    HW234601   0.574   6.982   4.557  0.4692  0.6727 -0.2622
11051SOL     OW34602   4.084   3.282   6.942 -0.6094 -0.7430  0.5604
11051SOL    HW134603   4.003   3.233   6.928 -1.5554  0.8385  0.3468
11051SOL    HW234604   4.081   3.308   7.034  0.8528 -2.6966  1.2331
11052SOL     OW34605   2.350   4.104   4.911  0.2414 -0.2037 -0.0602
11052SOL    HW134606   2.392   4.019   4.898  0.9117  0.1751 -0.4543
11052SOL    HW234607   2.358   4.121   5.005 -0.2731 -0.7619  0.0892
11053SOL     OW34608   2.642   4.029   2.605  0.1698  0.6559 -0.2194
11053SOL    HW134609   2.728   4.062   2.577  0.2962 -0.2507 -0.9400
11053SOL    HW234610   2.633   4.059   2.695  0.2173  2.7825 -0.8643
11054SOL     OW34611   5.546   5.109   4.859  0.5168  0.4685 -0.0469
11054SOL    HW134612   5.598   5.077   4.933 -0.4313  1.0736  0.9048
11054SOL    HW234613   5.528   5.200   4.880 -1.0256  0.2461 -0.2985
11055SOL     OW34614   2.340   4.681   5.911 -0.1212 -0.5899  0.4572
11055SOL    HW134615   2.319   4.590   5.932 -1.8015  0.2801  3.1601
11055SOL    HW234616   2.284   4.703   5.837  0.6240 -1.8445 -0.5060
11056SOL     OW34617   5.516   5.575   3.684  0.2082  0.3420  0.1773
11056SOL    HW134618   5.456   5.647   3.663 -0.4396 -0.2756 -0.1318
11056SOL    HW234619   5.544   5.593   3.774  0.2006  1.0706  0.0461
11057SOL     OW34620   1.070   3.894   6.820  0.1829  0.0126 -0.0997
11057SOL    HW134621   1.073   3.989   6.810 -0.7819  0.1196  0.4736
11057SOL    HW234622   1.004   3.865   6.758 -0.3832 -0.1408  0.5594
11058SOL     OW34623   1.542   2.952   4.568  0.6858  0.3068  0.5975
11058SOL    HW134624   1.509   2.915   4.650 -1.9643  1.8289  0.3385
11058SOL    HW234625   1.537   3.046   4.581  2.6173  0.6102 -0.4851
11059SOL     OW34626   1.749   5.043   4.591  0.3579 -0.5422 -0.4906
11059SOL    HW134627   1.705   4.979   4.536  1.1009 -0.0194 -1.7284
11059SOL    HW234628   1.724   5.128   4.553  0.6282 -0.1601  0.1725
11060SOL     OW34629   6.558   5.293   0.218  0.1854 -0.3096  0.0350
11060SOL    HW134630   6.621   5.244   0.270 -1.1956 -2.2382  0.0224
11060SOL    HW234631   6.477   5.289   0.269 -0.0134  1.9716 -0.0086
11061SOL     OW34632   2.964   5.959   5.190  0.3967  0.6612 -0.1766
11061SOL    HW134633   3.003   5.958   5.103 -1.6210  3.3289 -1.2638
11061SOL    HW234634   3.009   6.029   5.236  1.2251 -0.5210  0.8915
11062SOL     OW34635   4.364   5.266   3.195  0.0379 -0.1987  0.1418
11062SOL    HW134636   4.416   5.231   3.123  2.0515  1.4799  0.6876
11062SOL    HW234637   4.293   5.203   3.205  0.7880 -1.5207 -1.9960
11063SOL     OW34638   1.847   4.102   1.381  0.2101 -0.0566  0.1080
11063SOL    HW134639   1.804   4.030   1.335 -0.3245 -0.9744  1.9622
11063SOL    HW234640   1.835   4.178   1.323  0.9181 -1.4361 -1.9495
11064SOL     OW34641   2.085   4.402   4.287  0.2011  0.0807 -0.0062
11064SOL    HW134642   2.178   4.425   4.289  0.3411 -0.3547 -0.8601
11064SOL    HW234643   2.040   4.485   4.273  0.4684  0.2752  0.2793
11065SOL     OW34644   0.008   6.327   3.172 -0.2580  0.4701  0.7105
11065SOL    HW134645   0.084   6.297   3.221 -0.3156 -1.5066 -0.3116
11065SOL    HW234646  -0.050   6.252   3.168 -0.7381  0.8691 -1.4111
11066SOL     OW34647   1.615   3.278   2.619 -0.8628  0.1010  0.0208
11066SOL    HW134648   1.638   3.299   2.710 -1.0718 -1.9341  0.5788
11066SOL    HW234649   1.608   3.183   2.617 -1.5383  0.1504 -1.9910
11067SOL     OW34650   4.989   7.010   0.281 -0.5164  0.5253 -0.1641
11067SOL    HW134651   5.068   7.017   0.335  0.4302 -1.0769 -1.2303
11067SOL    HW234652   5.011   7.059   0.201 -0.7384  0.4042 -0.2998
11068SOL     OW34653   5.335   2.753   6.350  0.0181 -0.4696  0.2357
11068SOL    HW134654   5.322   2.833   6.400  1.3477  1.4561 -2.2653
11068SOL    HW234655   5.429   2.734   6.360  0.5651  0.5618 -2.1529
11069SOL     OW34656   4.757   6.120   0.316 -0.0966 -0.1686 -0.2716
11069SOL    HW134657   4.830   6.182   0.311 -1.1280  1.1955  0.9190
11069SOL    HW234658   4.687   6.162   0.265 -0.8804 -0.2178  0.7387
11070SOL     OW34659   1.057   6.772   0.164  0.2703  0.0529  0.3214
11070SOL    HW134660   0.971   6.806   0.140  0.2026 -0.1037  0.3421
11070SOL    HW234661   1.104   6.765   0.082 -0.0071 -0.6116  0.2115
11071SOL     OW34662   0.979   4.912   4.741  0.2773  0.2709  0.2418
11071SOL    HW134663   0.933   4.907   4.657  0.5631  1.8309 -0.0298
11071SOL    HW234664   1.058   4.861   4.728 -1.0258 -1.9666  0.5328
11072SOL     OW34665   4.716   5.071   4.598  0.5482  0.0715 -0.1596
11072SOL    HW134666   4.746   5.097   4.686  1.6135 -1.3634 -0.0693
11072SOL    HW234667   4.708   5.154   4.551 -1.9034  1.0948  1.7840
11073SOL     OW34668   0.359   1.969   1.351  0.6101  0.7224  0.1434
11073SOL    HW134669   0.373   1.875   1.343  2.1509  0.9920 -0.6629
11073SOL    HW234670   0.348   1.984   1.445 -1.3247 -0.4420  0.1626
11074SOL     OW34671   0.317   4.588   0.084 -0.3482 -0.1931 -0.1036
11074SOL    HW134672   0.402   4.560   0.119  0.3100  2.6729  0.8454
11074SOL    HW234673   0.339   4.636   0.004 -1.2134 -0.5004 -0.5394
11075SOL     OW34674   5.348   1.056   3.578  0.0500  0.5648  0.1549
11075SOL    HW134675   5.443   1.049   3.583  0.2067  0.8457 -1.8803
11075SOL    HW234676   5.321   1.069   3.669  1.9555  0.6837  0.7540
11076SOL     OW34677   6.748   5.951   2.243  0.1673 -0.3934 -0.2110
11076SOL    HW134678   6.686   5.879   2.246 -0.1531 -0.1345 -0.4994
11076SOL    HW234679   6.705   6.022   2.291  0.0841 -0.1009 -0.7069
11077SOL     OW34680   5.125   5.484   0.726  0.3695 -0.3293 -0.3007
11077SOL    HW134681   5.149   5.574   0.705  0.4331  0.2423  1.9238
11077SOL    HW234682   5.207   5.435   0.721  0.2794 -0.3669 -1.8354
11078SOL     OW34683   0.671   6.886   0.013 -0.5267 -0.3837 -0.6516
11078SOL    HW134684   0.642   6.796  -0.002  0.7581 -1.2365  1.4797
11078SOL    HW234685   0.762   6.887  -0.016 -0.0149 -0.2912  0.8586
11079SOL     OW34686   4.507   5.032   6.622 -0.0977 -0.2100 -0.1154
11079SOL    HW134687   4.480   5.094   6.689  1.7611  1.2436 -0.6050
11079SOL    HW234688   4.435   5.031   6.559 -0.8299  0.2098  0.6968
11080SOL     OW34689   4.706   4.955   2.685 -0.1630  0.0018 -0.3253
11080SOL    HW134690   4.739   4.918   2.767 -0.3644  0.7935  0.1287
11080SOL    HW234691   4.689   4.879   2.629  0.9176 -0.5051 -0.0007
11081SOL     OW34692   1.403   3.280   1.803 -0.7097 -0.3675  0.3259
11081SOL    HW134693   1.496   3.276   1.824 -0.9479 -0.1812  1.5158
11081SOL    HW234694   1.387   3.372   1.785 -0.9442 -0.1194  1.6570
11082SOL     OW34695   6.870   4.805   5.132 -0.4786  0.0086  0.0667
11082SOL    HW134696   6.846   4.887   5.175 -0.0747  1.4486 -2.2998
11082SOL    HW234697   6.796   4.785   5.075  0.8486  0.7127 -2.0241
11083SOL     OW34698   6.194   6.065   6.462 -0.5231  0.2874  0.9369
11083SOL    HW134699   6.251   5.995   6.431 -0.6124  1.1313 -1.3620
11083SOL    HW234700   6.106   6.036   6.438 -0.5209  1.3347 -0.4443
11084SOL     OW34701   1.258   0.675   5.213 -0.1152  0.4485 -0.1199
11084SOL    HW134702   1.169   0.709   5.224 -0.1451 -0.4343  3.7263
11084SOL    HW234703   1.313   0.734   5.264  0.7874 -1.3859  1.1611
11085SOL     OW34704   2.490   1.701   6.562  0.1289  0.3836 -0.2000
11085SOL    HW134705   2.461   1.623   6.608  0.1670  0.4111 -0.1311
11085SOL    HW234706   2.555   1.670   6.499 -0.0125  0.3287 -0.3194
11086SOL     OW34707   3.606   5.561   2.976  0.0670 -0.6713  0.4455
11086SOL    HW134708   3.660   5.528   2.904  0.2561  0.9122 -0.1805
11086SOL    HW234709   3.516   5.558   2.942  0.0370 -0.9419  0.5486
11087SOL     OW34710   1.906   5.304   1.296  0.3734  0.3721  0.0515
11087SOL    HW134711   1.916   5.223   1.247  0.4153  0.9850 -0.9767
11087SOL    HW234712   1.819   5.297   1.337  0.0507  0.1222 -0.6531
11088SOL     OW34713   1.536   5.116   4.390 -0.0365 -0.4865  0.0826
11088SOL    HW134714   1.587   5.180   4.439  1.0733 -0.7441 -0.6861
11088SOL    HW234715   1.446   5.132   4.416  0.3953  0.2140  1.2273
11089SOL     OW34716   0.210   4.943   1.305  0.0541 -0.4689 -0.2033
11089SOL    HW134717   0.176   4.858   1.278  0.4348  0.2921 -3.5199
11089SOL    HW234718   0.157   5.006   1.255  0.6805  1.1748  1.1334
11090SOL     OW34719   5.969   2.099   1.234  0.6723 -0.0172  0.1035
11090SOL    HW134720   5.894   2.114   1.291 -0.0770  0.5599 -1.0045
11090SOL    HW234721   5.941   2.131   1.148  1.0789 -2.4732 -1.0530
11091SOL     OW34722   3.133   0.064   0.429 -0.2325  0.3312  0.2053
11091SOL    HW134723   3.163   0.051   0.519  1.1481 -1.2850 -0.4304
11091SOL    HW234724   3.038   0.071   0.436 -0.2298 -0.6331  1.7195
11092SOL     OW34725   2.743   1.834   5.119 -0.2208 -0.3199  0.4969
11092SOL    HW134726   2.766   1.908   5.174  1.7988  1.4804 -2.5101
11092SOL    HW234727   2.682   1.870   5.055 -1.9167 -2.1705  0.9636
11093SOL     OW34728   6.345   2.324   0.789  0.3137  0.1031  0.0873
11093SOL    HW134729   6.325   2.401   0.841 -1.2063 -1.4992  2.0351
11093SOL    HW234730   6.407   2.274   0.842  1.7685  0.1933 -1.4169
11094SOL     OW34731   6.393   0.868   5.663  0.7301  0.3238  0.1282
11094SOL    HW134732   6.306   0.882   5.626 -0.3351 -0.6103  2.1381
11094SOL    HW234733   6.409   0.774   5.651  0.4339  0.0325  1.7616
11095SOL     OW34734   0.285   6.440   3.997 -0.2394  0.1563 -0.0137
11095SOL    HW134735   0.191   6.459   3.993 -0.0237  1.2186 -0.3117
11095SOL    HW234736   0.325   6.504   3.938  0.5998 -0.8347 -0.5540
11096SOL     OW34737   2.480   3.567   1.624  0.0376  0.2101  0.0467
11096SOL    HW134738   2.478   3.621   1.703 -3.0246 -1.0507  0.9948
11096SOL    HW234739   2.412   3.604   1.567 -0.2483 -0.9695 -0.4245
11097SOL     OW34740   4.514   3.842   5.674  0.1217  0.1004  0.1764
11097SOL    HW134741   4.545   3.853   5.764 -2.1724  1.2152  0.9094
11097SOL    HW234742   4.453   3.768   5.679  1.3246 -1.0025 -0.8810
11098SOL     OW34743   6.350   2.896   4.500 -0.6404 -0.2281  0.5129
11098SOL    HW134744   6.352   2.991   4.511  0.1616  0.0063 -1.3328
11098SOL    HW234745   6.438   2.866   4.522 -0.9167 -0.5685  1.1848
11099SOL     OW34746   3.343   4.949   6.215 -0.2350  0.1260 -0.1708
11099SOL    HW134747   3.278   5.019   6.218  0.8671  1.1966 -0.6337
11099SOL    HW234748   3.399   4.972   6.141  2.1222  0.5664  1.6503
11100SOL     OW34749   7.046   2.513   6.562  0.3380  0.2676 -0.3676
11100SOL    HW134750   7.072   2.444   6.623 -0.5315  0.6577  0.4690
11100SOL    HW234751   7.101   2.587   6.585  0.3125  0.2820 -0.3538
11101SOL     OW34752   4.895   1.369   4.957  0.0631 -0.1582 -0.5249
11101SOL    HW134753   4.899   1.274   4.941  0.3941  0.0745 -1.9457
11101SOL    HW234754   4.802   1.390   4.952 -0.1382 -0.5658  0.9491
11102SOL     OW34755   4.286   3.666   4.840 -0.2000  0.3321 -0.3436
11102SOL    HW134756   4.315   3.578   4.818 -0.9600  0.1054 -0.4663
11102SOL    HW234757   4.283   3.712   4.757  0.2900  0.5049 -0.2674
11103SOL     OW34758   4.737   0.941   0.373  0.4484 -0.0316 -0.5638
11103SOL    HW134759   4.828   0.958   0.396  0.9412 -1.8714 -1.0128
11103SOL    HW234760   4.734   0.947   0.278  0.6558 -2.2057 -0.7540
11104SOL     OW34761   0.260   4.780   3.801 -0.3294 -0.3946 -0.4596
11104SOL    HW134762   0.332   4.780   3.738  0.0301 -0.6884 -0.0483
11104SOL    HW234763   0.189   4.732   3.757  0.5390 -2.2389  0.0596
11105SOL     OW34764   4.397   6.434   3.514 -0.4347  0.1053 -1.0985
11105SOL    HW134765   4.448   6.503   3.556  1.5041 -0.7934 -1.8825
11105SOL    HW234766   4.308   6.446   3.549  0.7797  0.0553  2.4444
11106SOL     OW34767   1.965   2.728   6.976 -0.0470  0.0429 -0.2593
11106SOL    HW134768   1.967   2.747   7.070  0.0994 -0.1033 -0.2323
11106SOL    HW234769   1.899   2.788   6.941  0.2126  0.4006 -0.1354
11107SOL     OW34770   5.694   7.045   6.382 -0.2234  0.0351  0.5603
11107SOL    HW134771   5.747   6.966   6.374  1.1051  0.9966 -0.8820
11107SOL    HW234772   5.724   7.086   6.463  0.2847 -0.0993  0.4405
11108SOL     OW34773   2.797   6.783   6.515 -0.1884 -1.0288 -0.1572
11108SOL    HW134774   2.764   6.793   6.604  0.4490  2.1268 -0.1368
11108SOL    HW234775   2.719   6.787   6.460 -0.3884  0.2640  0.1734
11109SOL     OW34776   2.665   5.400   1.366 -0.3715 -0.1345 -0.0514
11109SOL    HW134777   2.616   5.471   1.407 -2.3422 -1.8412  0.6894
11109SOL    HW234778   2.668   5.331   1.432  0.8612 -1.0536 -1.0110
11110SOL     OW34779   6.393   5.620   4.137 -0.6840  0.2230  0.1873
11110SOL    HW134780   6.423   5.530   4.148 -1.8403 -0.6518 -2.7630
11110SOL    HW234781   6.298   5.614   4.142 -0.7487  1.4412  0.7054
11111SOL     OW34782   5.334   0.444   3.485 -0.0932  0.6293  0.0358
11111SOL    HW134783   5.274   0.385   3.530  0.4812  1.0125  1.3528
11111SOL    HW234784   5.294   0.458   3.399 -0.7198 -0.8985  0.0463
11112SOL     OW34785   0.549   6.752   4.291  0.6954  0.5650  0.8286
11112SOL    HW134786   0.605   6.688   4.246  0.9702 -0.2929  2.3041
11112SOL    HW234787   0.608   6.825   4.312  0.6664  0.7730  0.2051
11113SOL     OW34788   1.980   1.191   3.345 -0.1269  0.0237 -0.3148
11113SOL    HW134789   1.908   1.166   3.287  0.2936  0.2341 -0.9496
11113SOL    HW234790   2.042   1.118   3.338 -0.1245 -0.0002 -0.0402
11114SOL     OW34791   6.329   0.948   4.734  0.0993 -0.4792  0.4413
11114SOL    HW134792   6.302   0.910   4.650  1.7416 -2.2622  0.6483
11114SOL    HW234793   6.247   0.976   4.775 -0.9119 -1.2267 -0.9783
11115SOL     OW34794   0.237   0.780   6.815  0.1623  0.1373  0.1428
11115SOL    HW134795   0.257   0.764   6.723  0.3880 -0.0975  0.2301
11115SOL    HW234796   0.183   0.705   6.842 -0.4542  0.5390  0.0298
11116SOL     OW34797   2.119   4.576   2.193  0.2089 -0.5975  0.0386
11116SOL    HW134798   2.070   4.658   2.199 -1.3670 -1.3012 -1.9912
11116SOL    HW234799   2.052   4.509   2.180  1.6022 -1.7264 -1.9035
11117SOL     OW34800   1.610   4.046   5.581 -0.1273  0.4567 -0.3568
11117SOL    HW134801   1.556   3.972   5.608 -0.9091  0.8394 -0.8325
11117SOL    HW234802   1.672   4.009   5.518  0.1946  0.0093  0.2149
11118SOL     OW34803   3.189   6.579   2.182  0.4920  0.0408 -0.0938
11118SOL    HW134804   3.173   6.644   2.249 -1.0788 -0.3592 -0.0167
11118SOL    HW234805   3.143   6.501   2.213  2.7553 -1.3161  0.0772
11119SOL     OW34806   6.438   2.229   1.350  0.2046 -0.4017 -0.0679
11119SOL    HW134807   6.383   2.298   1.388  0.7222  0.5280 -0.9532
11119SOL    HW234808   6.379   2.181   1.292  0.3542  0.8090 -1.2829
11120SOL     OW34809   2.817   2.145   6.061 -0.2392  0.0433 -0.4913
11120SOL    HW134810   2.817   2.225   6.008 -0.1924 -0.3600 -1.1079
11120SOL    HW234811   2.821   2.176   6.152  0.7549  0.7336 -0.7501
11121SOL     OW34812   2.382   4.901   0.818 -0.5695  0.1935  0.2920
11121SOL    HW134813   2.324   4.921   0.745 -0.2385 -0.6044 -0.2118
11121SOL    HW234814   2.379   4.805   0.825 -0.0978  0.2150  0.9103
11122SOL     OW34815   6.180   2.230   4.630  0.3645 -0.5348 -0.1496
11122SOL    HW134816   6.152   2.223   4.721  0.4376  2.6302  0.2275
11122SOL    HW234817   6.270   2.263   4.635  0.0875  0.4778 -1.3303
11123SOL     OW34818   4.143   0.926   2.609  0.4779 -0.2689 -0.1057
11123SOL    HW134819   4.137   0.831   2.598 -0.0670 -0.2563  0.1004
11123SOL    HW234820   4.063   0.950   2.655  0.4302  0.3410 -0.5063
11124SOL     OW34821   0.446   1.179   6.895  0.5554 -0.5381  0.2766
11124SOL    HW134822   0.530   1.177   6.850  0.2792 -0.6021 -0.2376
11124SOL    HW234823   0.419   1.087   6.899  0.1220 -0.4406 -0.2963
11125SOL     OW34824   1.572   5.947   1.861 -0.0909  0.5814  0.1639
11125SOL    HW134825   1.628   5.971   1.936 -0.2304  1.3525  0.0233
11125SOL    HW234826   1.491   5.917   1.901  0.3335 -0.3290  0.3639
11126SOL     OW34827   3.079   3.712   3.879  0.1949 -0.5573  0.3862
11126SOL    HW134828   3.000   3.708   3.933 -0.3829  1.5390 -0.2346
11126SOL    HW234829   3.138   3.769   3.928  0.9414 -1.2478  0.3235
11127SOL     OW34830   4.873   2.921   0.945 -0.5260 -0.2462  0.3920
11127SOL    HW134831   4.804   2.978   0.979  1.6732  1.7174  1.8900
11127SOL    HW234832   4.932   2.909   1.019  0.7959 -1.7835 -0.8477
11128SOL     OW34833   0.873   5.813   6.317  0.1276  0.2473 -0.1026
11128SOL    HW134834   0.898   5.732   6.273 -0.3254  1.1010 -2.0433
11128SOL    HW234835   0.952   5.842   6.363  0.0563 -1.7029  1.3583
11129SOL     OW34836   1.867   5.667   0.149 -0.4161  0.5213  0.4133
11129SOL    HW134837   1.850   5.655   0.242 -0.4710 -1.3403  0.1900
11129SOL    HW234838   1.902   5.584   0.119  1.8557  1.8103 -0.7732
11130SOL     OW34839   6.741   5.628   2.219 -0.6519 -0.2334  0.0997
11130SOL    HW134840   6.813   5.569   2.195 -0.4249 -0.3006  0.9143
11130SOL    HW234841   6.698   5.584   2.293 -1.8063 -0.4042 -0.6383
11131SOL     OW34842   4.190   0.270   4.104 -0.1645 -0.0401  0.0592
11131SOL    HW134843   4.164   0.359   4.126  1.0048  0.6012 -1.0288
11131SOL    HW234844   4.154   0.256   4.016 -0.9354 -0.9225  0.4897
11132SOL     OW34845   1.240   0.079   6.866  0.0188  1.0909 -0.4388
11132SOL    HW134846   1.166   0.136   6.846 -1.4230  0.0838  1.5993
11132SOL    HW234847   1.237   0.012   6.797  0.2938  2.1323 -1.4999
11133SOL     OW34848   3.645   5.108   3.344 -0.0942  0.4437  0.4254
11133SOL    HW134849   3.590   5.111   3.265  1.1283 -2.0079 -0.6484
11133SOL    HW234850   3.587   5.133   3.415 -2.0796 -0.2049 -0.8938
11134SOL     OW34851   3.735   5.033   0.666 -0.6166 -0.2217 -0.5609
11134SOL    HW134852   3.712   5.042   0.574  2.3816 -0.0402 -1.4000
11134SOL    HW234853   3.670   5.085   0.713 -1.0872  1.2611 -2.7444
11135SOL     OW34854   2.079   0.867   1.310  0.1712 -1.3182 -0.1054
11135SOL    HW134855   2.082   0.831   1.398  0.6629  1.3518  1.0657
11135SOL    HW234856   2.161   0.915   1.300 -1.2464  1.1199 -0.7378
11136SOL     OW34857   0.878   1.371   4.300 -0.0223  0.0108 -0.0754
11136SOL    HW134858   0.883   1.430   4.225 -0.6036  0.5451  0.2945
11136SOL    HW234859   0.848   1.426   4.372 -0.0749 -0.6294  0.4028
11137SOL     OW34860   0.924   6.636   5.586 -0.3428 -0.3022  0.3839
11137SOL    HW134861   0.987   6.569   5.612  0.2762 -0.2477 -0.8749
11137SOL    HW234862   0.960   6.672   5.505 -0.9387  1.1812  0.7397
11138SOL     OW34863   0.620   3.293   3.922 -0.4271 -0.5373  0.6167
11138SOL    HW134864   0.680   3.288   3.848 -0.9084 -0.1691  0.1908
11138SOL    HW234865   0.563   3.217   3.913 -0.4557 -0.5180  0.6308
11139SOL     OW34866   1.789   2.290   5.669  0.7632  0.4399  0.7898
11139SOL    HW134867   1.782   2.327   5.580 -0.3329 -1.7620 -0.1244
11139SOL    HW234868   1.710   2.320   5.713  0.1887 -0.2363  0.2548
11140SOL     OW34869   5.475   6.392   3.202  0.0810  0.4223  0.2657
11140SOL    HW134870   5.531   6.317   3.223 -0.8358 -0.1111  0.8698
11140SOL    HW234871   5.429   6.411   3.284 -1.6123 -0.0085 -0.5402
11141SOL     OW34872   3.530   5.671   0.476 -0.0395  0.4877 -0.0078
11141SOL    HW134873   3.555   5.726   0.402 -1.5707 -1.3051 -1.9534
11141SOL    HW234874   3.435   5.665   0.471  0.0170 -1.5674  0.6911
11142SOL     OW34875   2.970   6.832   4.436 -0.2001 -0.5695  0.1314
11142SOL    HW134876   2.988   6.764   4.502 -1.0338 -0.6341  0.3064
11142SOL    HW234877   3.048   6.887   4.436  1.0280 -2.2219 -0.8997
11143SOL     OW34878   6.629   4.002   0.319  0.0639 -0.5365  0.1304
11143SOL    HW134879   6.703   3.993   0.379  1.1011 -0.5278 -1.1201
11143SOL    HW234880   6.664   4.046   0.242 -0.9739 -1.4767 -0.9432
11144SOL     OW34881   0.816   6.876   4.045  0.2629 -0.3980  0.1428
11144SOL    HW134882   0.825   6.962   4.002 -1.9910  0.6932  1.6950
11144SOL    HW234883   0.863   6.816   3.987  0.2338  1.5388 -2.0388
11145SOL     OW34884   2.015   0.777   6.578 -0.2179 -0.4693 -0.9547
11145SOL    HW134885   2.111   0.779   6.588 -0.1843  1.3542 -1.3221
11145SOL    HW234886   1.997   0.839   6.508 -1.8194  0.9572  0.6240
11146SOL     OW34887   4.608   1.157   5.807 -0.2096 -0.8763 -0.0558
11146SOL    HW134888   4.587   1.111   5.888 -0.5145 -0.3513  0.1654
11146SOL    HW234889   4.530   1.210   5.787  0.4562  0.2454  0.1912
11147SOL     OW34890   6.039   3.085   3.762 -0.4194  0.4839 -0.1053
11147SOL    HW134891   5.982   3.015   3.796  0.8126 -0.8195 -0.6156
11147SOL    HW234892   6.010   3.164   3.808 -1.4762 -0.4676  0.9319
11148SOL     OW34893   4.158   6.445   2.152 -0.5096 -0.0234 -0.6624
11148SOL    HW134894   4.112   6.395   2.085 -0.2465 -1.3752  0.1455
11148SOL    HW234895   4.251   6.435   2.131 -0.4753  1.2074 -1.2270
11149SOL     OW34896   1.661   3.684   5.217  0.5704 -0.8080  0.3691
11149SOL    HW134897   1.689   3.728   5.136 -0.1255 -0.5691  0.2488
11149SOL    HW234898   1.571   3.658   5.199 -0.2244  0.8367  1.6818
11150SOL     OW34899   2.796   3.726   5.749 -0.5554 -0.0495  0.1240
11150SOL    HW134900   2.822   3.754   5.661 -0.1336 -1.3371 -0.1814
11150SOL    HW234901   2.745   3.647   5.735  0.5618 -0.9843  1.0975
11151SOL     OW34902   6.642   3.524   6.722 -1.0254  0.1357  0.1856
11151SOL    HW134903   6.558   3.551   6.686 -0.2379  1.2185 -0.9181
11151SOL    HW234904   6.704   3.535   6.650 -0.0268 -1.2664  0.7701
11152SOL     OW34905   4.379   6.532   0.666 -0.0262  0.5692 -0.1328
11152SOL    HW134906   4.315   6.600   0.690 -0.7204 -0.3862  0.8020
11152SOL    HW234907   4.385   6.537   0.571  1.6168  3.4241 -0.0052
11153SOL     OW34908   4.391   0.601   7.124 -0.6424  0.0211 -0.1767
11153SOL    HW134909   4.397   0.506   7.120 -0.3003  0.0554 -0.4978
11153SOL    HW234910   4.470   0.629   7.171 -1.4285  0.0593  1.1837
11154SOL     OW34911   6.271   4.924   6.181  0.2407  0.3884 -0.8340
11154SOL    HW134912   6.218   4.845   6.172 -0.3227  0.3857  1.6448
11154SOL    HW234913   6.255   4.953   6.271  2.6545  1.7220 -0.7413
11155SOL     OW34914   7.117   5.309   1.970  0.0359  0.3105 -0.0168
11155SOL    HW134915   7.202   5.266   1.963 -0.7494 -1.4859  0.8673
11155SOL    HW234916   7.059   5.257   1.914 -0.9197  0.2318  1.0060
11156SOL     OW34917   0.665   3.309   5.951  0.2987  0.1428 -0.3906
11156SOL    HW134918   0.656   3.215   5.966 -0.2902  0.1254 -0.7895
11156SOL    HW234919   0.757   3.328   5.968  0.0292 -0.1509  1.5403
11157SOL     OW34920   3.546   2.258   6.507 -0.1841  0.2226  0.2069
11157SOL    HW134921   3.563   2.216   6.422  0.3119 -0.4602  0.6322
11157SOL    HW234922   3.616   2.322   6.517 -0.9529  1.1847 -0.4531
11158SOL     OW34923   5.755   0.858   1.371  0.3214  0.9413 -0.0143
11158SOL    HW134924   5.764   0.900   1.456  1.3585  0.5903  0.0664
11158SOL    HW234925   5.733   0.767   1.392  1.2787  0.6847 -0.0907
11159SOL     OW34926   2.384   2.166   0.215  0.3520  0.1737 -0.2351
11159SOL    HW134927   2.318   2.111   0.172  2.8808 -1.5058 -2.3234
11159SOL    HW234928   2.387   2.246   0.162  0.0889  0.2121 -0.1941
11160SOL     OW34929   1.283   5.870   0.494 -0.1598 -0.2858  0.3846
11160SOL    HW134930   1.371   5.859   0.458 -0.3924 -0.5208 -0.1223
11160SOL    HW234931   1.274   5.964   0.509 -0.1746 -0.1367 -0.4942
11161SOL     OW34932   4.098   2.540   0.628  1.1470 -0.5838 -0.9585
11161SOL    HW134933   4.142   2.459   0.654  0.8736 -0.0571  1.4290
11161SOL    HW234934   4.169   2.598   0.600  1.9361 -0.2263  1.5070
11162SOL     OW34935   3.541   4.603   6.333  0.6897  0.4174  0.0402
11162SOL    HW134936   3.615   4.568   6.383  0.8060  0.1377 -0.3182
11162SOL    HW234937   3.565   4.586   6.241 -0.1047 -0.2548 -0.0530
11163SOL     OW34938   2.069   2.328   0.824 -0.2861 -0.3974 -0.5216
11163SOL    HW134939   1.999   2.393   0.822 -0.2523 -0.3891 -1.5558
11163SOL    HW234940   2.078   2.306   0.917 -2.2896 -1.0822 -0.4341
11164SOL     OW34941   6.701   1.943   1.636 -0.5623 -0.5067 -0.4283
11164SOL    HW134942   6.697   2.034   1.606  1.8725 -0.4764 -0.8862
11164SOL    HW234943   6.794   1.929   1.655 -1.2416 -2.1389  2.1312
11165SOL     OW34944   5.688   6.753   2.947  0.6476  0.1576 -0.0656
11165SOL    HW134945   5.648   6.668   2.965  1.2533  0.1078  1.1776
11165SOL    HW234946   5.781   6.733   2.934  0.6837  0.5574 -0.4268
11166SOL     OW34947   6.161   6.405   6.991 -0.2139  0.1442  0.3549
11166SOL    HW134948   6.087   6.349   7.015 -0.1663  0.3203  0.9175
11166SOL    HW234949   6.157   6.478   7.053 -0.1387  0.6454 -0.2236
11167SOL     OW34950   6.848   2.061   0.413  0.3840  0.4271 -0.0011
11167SOL    HW134951   6.755   2.082   0.408 -0.0858 -0.6545  2.7001
11167SOL    HW234952   6.852   1.965   0.413  1.3911  0.4482  1.0916
11168SOL     OW34953   4.670   5.273   2.371  0.0763  0.1597  0.3908
11168SOL    HW134954   4.657   5.352   2.318  0.4343  0.8365  1.2785
11168SOL    HW234955   4.646   5.201   2.313  2.3796  0.7047 -1.4228
11169SOL     OW34956   5.005   2.494   0.792 -0.1191 -0.0194 -0.0367
11169SOL    HW134957   4.940   2.450   0.737 -0.4156 -3.2187  2.5660
11169SOL    HW234958   5.088   2.479   0.747 -0.3064 -2.8766  0.3837
11170SOL     OW34959   4.598   7.064   4.115 -0.4609  0.1449 -0.3223
11170SOL    HW134960   4.591   7.047   4.021  0.2411 -1.4084 -0.1214
11170SOL    HW234961   4.688   7.041   4.137 -0.7940 -0.0874  0.8427
11171SOL     OW34962   4.480   0.811   2.263 -0.3323 -0.1981 -0.1928
11171SOL    HW134963   4.478   0.717   2.280 -0.2460  0.1731  2.1533
11171SOL    HW234964   4.411   0.847   2.318  0.1186  1.1923 -0.5003
11172SOL     OW34965   3.805   3.871   2.606  0.6218  0.1867  0.4691
11172SOL    HW134966   3.893   3.833   2.609  0.5814  0.0388 -0.0542
11172SOL    HW234967   3.764   3.843   2.688  1.1767  0.5466  0.8753
11173SOL     OW34968   4.225   2.823   1.918  0.1287  0.5299 -0.2863
11173SOL    HW134969   4.186   2.777   1.992 -0.3686 -1.4413 -1.7093
11173SOL    HW234970   4.259   2.754   1.861  0.2907  1.9646 -2.0308
11174SOL     OW34971   0.070   1.534   4.475  0.3822  0.4990  0.6120
11174SOL    HW134972   0.077   1.597   4.403 -0.6101 -1.6743 -1.5551
11174SOL    HW234973  -0.010   1.560   4.521  0.0834  0.9597 -0.1356
11175SOL     OW34974   1.872   3.206   5.233  0.1808  0.0007  0.0756
11175SOL    HW134975   1.898   3.296   5.214  1.8536 -0.3750  0.4006
11175SOL    HW234976   1.795   3.214   5.289 -0.1746  1.2081 -0.5602
11176SOL     OW34977   3.778   4.031   3.761  0.3410 -0.1807  0.3410
11176SOL    HW134978   3.725   4.104   3.730 -1.8727 -2.3193 -1.3555
11176SOL    HW234979   3.837   4.012   3.688  1.7685  0.6031  1.2461
11177SOL     OW34980   6.736   0.970   2.996 -0.4684 -0.1719  0.2202
11177SOL    HW134981   6.718   0.965   3.090 -0.6470 -1.9180  0.1223
11177SOL    HW234982   6.831   0.957   2.989 -0.5416 -0.6431  0.1153
11178SOL     OW34983   6.477   6.995   4.327  0.0647 -1.0444  0.2313
11178SOL    HW134984   6.439   7.078   4.301  0.2846 -1.3850 -1.2495
11178SOL    HW234985   6.408   6.930   4.311  0.5042 -1.3749 -0.3483
11179SOL     OW34986   6.489   6.635   5.444  0.4391 -0.6622 -0.0738
11179SOL    HW134987   6.483   6.678   5.358  0.2506  1.3348  0.8785
11179SOL    HW234988   6.418   6.572   5.444  0.5489 -0.8354 -1.4403
11180SOL     OW34989   6.934   6.471   4.210 -0.0333 -0.0426 -0.2696
11180SOL    HW134990   6.967   6.505   4.127  1.4408 -0.5569  0.0841
11180SOL    HW234991   6.935   6.376   4.199 -1.7647 -0.0854 -0.3621
11181SOL     OW34992   0.377   3.755   0.737 -0.6864 -0.0908  0.2932
11181SOL    HW134993   0.337   3.706   0.809 -2.5892 -0.2147 -0.7929
11181SOL    HW234994   0.333   3.723   0.659 -0.7312  2.0928 -0.6438
11182SOL     OW34995   6.320   1.805   5.837  0.0710  0.2078 -0.0978
11182SOL    HW134996   6.365   1.889   5.847 -1.9243  1.1710  1.4057
11182SOL    HW234997   6.331   1.761   5.921  0.7884 -0.9119 -0.7564
11183SOL     OW34998   4.844   1.709   6.515 -0.1266  0.0510  0.1384
11183SOL    HW134999   4.911   1.744   6.574  0.2146 -0.2169 -0.0903
11183SOL    HW235000   4.784   1.783   6.501  0.2769  0.3774  0.1127
11184SOL     OW35001   1.794   1.669   1.802 -0.1056 -0.2909 -0.0051
11184SOL    HW135002   1.774   1.636   1.889  0.6193  1.6282  0.9461
11184SOL    HW235003   1.729   1.628   1.745 -1.2710 -0.7585  1.5928
11185SOL     OW35004   6.098   1.618   6.427 -0.4566 -0.2526 -0.0008
11185SOL    HW135005   6.039   1.565   6.481 -2.4960  1.7100 -0.1780
11185SOL    HW235006   6.040   1.675   6.376  1.5234  0.0992 -2.0180
11186SOL     OW35007   5.228   2.626   0.160 -0.0449 -0.5517 -0.4727
11186SOL    HW135008   5.185   2.710   0.174 -0.1979 -0.5929 -0.6757
11186SOL    HW235009   5.322   2.645   0.163 -0.0773 -0.5196  0.3026
11187SOL     OW35010   4.749   6.158   4.121  0.3245 -0.5489  0.2134
11187SOL    HW135011   4.780   6.162   4.211 -0.2834  0.4433  0.3918
11187SOL    HW235012   4.828   6.155   4.067  0.6958 -1.8614  0.7834
11188SOL     OW35013   4.855   1.549   6.259  0.3672 -0.7532 -0.4382
11188SOL    HW135014   4.921   1.480   6.264  1.4508  0.2710  0.3604
11188SOL    HW235015   4.835   1.569   6.351 -2.2378 -2.0665 -0.6439
11189SOL     OW35016   7.090   1.446   3.921 -0.0159  0.3153  0.3658
11189SOL    HW135017   7.120   1.484   4.004 -0.8108  1.8695 -0.0258
11189SOL    HW235018   7.136   1.497   3.854 -1.0711  0.5605 -0.1787
11190SOL     OW35019   5.963   1.828   0.589 -0.0958 -0.4774 -0.0061
11190SOL    HW135020   6.055   1.840   0.568 -0.4761  0.3477 -1.2844
11190SOL    HW235021   5.920   1.908   0.558 -1.2577 -0.8705  0.5167
11191SOL     OW35022   4.902   1.035   5.657  0.4859  0.8341 -0.1847
11191SOL    HW135023   4.811   1.049   5.684 -0.5803 -2.1618 -1.7059
11191SOL    HW235024   4.944   0.998   5.734 -0.8040 -1.6710 -0.5773
11192SOL     OW35025   6.252   2.204   3.966 -0.2572  0.2563  0.1467
11192SOL    HW135026   6.249   2.240   4.055  0.6017 -1.3898  0.8784
11192SOL    HW235027   6.207   2.120   3.972 -0.4434  0.2496 -1.0507
11193SOL     OW35028   4.238   2.747   4.865 -0.4828  0.0407 -0.2808
11193SOL    HW135029   4.185   2.710   4.935  0.2099 -1.2405 -0.3913
11193SOL    HW235030   4.303   2.801   4.910 -1.1821  0.7221 -0.0758
11194SOL     OW35031   5.673   4.596   0.432  0.1058 -0.8981  0.3660
11194SOL    HW135032   5.630   4.517   0.398 -1.1949 -0.0116 -0.1339
11194SOL    HW235033   5.620   4.622   0.507 -0.4592  0.3749 -0.4340
11195SOL     OW35034   3.671   0.726   3.156  0.1479 -0.2388 -0.0198
11195SOL    HW135035   3.705   0.675   3.083  1.0143 -0.2619  0.3817
11195SOL    HW235036   3.577   0.707   3.158 -0.0237  0.3536 -1.5767
11196SOL     OW35037   6.376   0.366   4.165 -0.0361 -0.5338 -0.6279
11196SOL    HW135038   6.369   0.445   4.219  2.4305  0.1215 -1.1248
11196SOL    HW235039   6.350   0.295   4.224  0.7128  0.3516  0.8602
11197SOL     OW35040   5.685   3.620   4.975 -0.6806  0.1527 -0.6179
11197SOL    HW135041   5.764   3.570   4.994 -0.4221  0.4545 -0.8784
11197SOL    HW235042   5.630   3.610   5.053  0.6706  2.0077  0.6656
11198SOL     OW35043   4.643   5.473   4.018  0.0004 -0.7510  0.0004
11198SOL    HW135044   4.584   5.406   4.054 -0.4009 -0.0291  0.7140
11198SOL    HW235045   4.675   5.521   4.095 -0.8511  0.8065 -0.5713
11199SOL     OW35046   0.564   0.416   2.769 -0.0625 -0.2983 -0.4096
11199SOL    HW135047   0.479   0.388   2.803 -1.0186  0.4127 -2.1027
11199SOL    HW235048   0.577   0.503   2.807 -0.4062 -0.1465 -0.6295
11200SOL     OW35049   5.536   5.390   4.994  0.3861 -0.2288 -0.3225
11200SOL    HW135050   5.460   5.425   5.042  0.8887 -0.3607  0.5908
11200SOL    HW235051   5.531   5.432   4.908 -2.0995 -2.0558 -1.1874
11201SOL     OW35052   0.037   6.923   7.040  0.2866  0.1101  0.1123
11201SOL    HW135053   0.110   6.918   7.101  0.8912  0.3812 -0.5845
11201SOL    HW235054   0.074   6.961   6.960 -0.4218 -0.5429 -0.5434
11202SOL     OW35055   4.195   1.993   0.661 -0.5132 -0.6538  0.3935
11202SOL    HW135056   4.277   1.993   0.710 -0.2561  2.0318  0.1365
11202SOL    HW235057   4.204   2.067   0.600 -2.5853 -1.1566 -0.6175
11203SOL     OW35058   4.689   2.499   6.529  0.0410 -0.0181  0.1691
11203SOL    HW135059   4.774   2.462   6.552 -0.0099 -0.0732  0.2681
11203SOL    HW235060   4.676   2.569   6.593 -0.0069 -0.0349  0.1770
11204SOL     OW35061   5.892   5.539   3.849 -0.3463  0.0483  0.1818
11204SOL    HW135062   5.964   5.598   3.872 -0.5450  0.7913 -0.9648
11204SOL    HW235063   5.866   5.498   3.931  1.6408 -0.5397  0.5521
11205SOL     OW35064   2.792   0.957   4.077  0.0445 -0.2735  0.2747
11205SOL    HW135065   2.792   0.943   4.172 -1.8109 -0.6427  0.2506
11205SOL    HW235066   2.708   1.000   4.059 -0.4226 -1.7982 -1.4155
11206SOL     OW35067   4.809   6.864   3.998 -0.1058  0.0218 -0.1515
11206SOL    HW135068   4.899   6.866   4.030 -0.4086 -0.2275  0.7570
11206SOL    HW235069   4.812   6.909   3.914  1.1820 -1.4378 -0.9369
11207SOL     OW35070   0.586   2.113   5.649 -0.2434  0.1979  0.0589
11207SOL    HW135071   0.588   2.151   5.737 -0.0757  0.0180  0.1337
11207SOL    HW235072   0.593   2.188   5.591 -1.0663  0.3779  0.1858
11208SOL     OW35073   2.480   0.539   5.610 -0.5712 -0.7237 -0.2195
11208SOL    HW135074   2.511   0.628   5.592 -1.1163 -0.4220  0.2650
11208SOL    HW235075   2.385   0.549   5.619 -0.6847 -1.4332 -0.5929
11209SOL     OW35076   5.997   2.845   0.890 -0.4541 -0.4415  0.5889
11209SOL    HW135077   5.913   2.868   0.851 -1.0932 -2.1976  0.8617
11209SOL    HW235078   6.060   2.852   0.818 -1.1466 -0.8568 -0.0614
11210SOL     OW35079   6.670   3.567   3.928  0.2768  0.3337 -0.2491
11210SOL    HW135080   6.595   3.618   3.901 -0.0288  0.3711  0.6431
11210SOL    HW235081   6.673   3.576   4.024  2.6620  2.0962 -0.3806
11211SOL     OW35082   1.916   2.102   2.513 -0.1818  0.0034  0.3389
11211SOL    HW135083   1.914   2.082   2.419  1.1840  0.1996  0.2384
11211SOL    HW235084   2.009   2.109   2.534 -0.4648  0.0501  1.7000
11212SOL     OW35085   2.966   6.263   5.307  0.8857 -0.0584 -0.0722
11212SOL    HW135086   2.905   6.333   5.332  0.1854 -0.7440  0.1677
11212SOL    HW235087   2.920   6.182   5.329  0.4403 -0.7291 -3.0730
11213SOL     OW35088   6.548   1.693   5.014 -0.3836 -0.9875 -0.0960
11213SOL    HW135089   6.476   1.733   4.966 -1.9079 -2.2323  1.0343
11213SOL    HW235090   6.623   1.702   4.956 -0.9383  2.0985 -0.4993
11214SOL     OW35091   1.372   0.739   6.695 -0.3781 -0.0575  0.6963
11214SOL    HW135092   1.447   0.785   6.734  0.0320 -1.0070  1.0659
11214SOL    HW235093   1.409   0.693   6.620 -0.8467  0.4604  0.1433
11215SOL     OW35094   6.919   0.776   2.762  0.9497  0.8257 -0.4676
11215SOL    HW135095   6.946   0.774   2.854  0.7258 -1.0436 -0.3959
11215SOL    HW235096   7.000   0.762   2.713  1.0105  1.4454 -0.5553
11216SOL     OW35097   3.783   5.099   6.942 -0.3447 -0.3337  0.1591
11216SOL    HW135098   3.726   5.174   6.958 -0.0629 -0.1610  0.3633
11216SOL    HW235099   3.812   5.109   6.851 -0.3284 -0.2070  0.1784
11217SOL     OW35100   6.715   5.719   0.261  0.5378 -0.5328 -0.4506
11217SOL    HW135101   6.737   5.634   0.224  0.0313 -0.5146 -0.8102
11217SOL    HW235102   6.653   5.757   0.198 -0.5318 -0.5932  0.5468
11218SOL     OW35103   5.301   5.927   2.968 -0.1961 -0.4874  0.4524
11218SOL    HW135104   5.355   5.991   3.015 -0.2799 -1.4088  1.8785
11218SOL    HW235105   5.347   5.912   2.885  1.1335 -0.4056  1.1551
11219SOL     OW35106   3.549   5.507   2.109  0.4372  0.5161  0.0634
11219SOL    HW135107   3.483   5.576   2.119  0.6294  0.6072  0.7789
11219SOL    HW235108   3.512   5.432   2.156 -0.6775 -0.5531 -2.3534
11220SOL     OW35109   5.316   2.971   6.520  0.4957  0.0479  0.0388
11220SOL    HW135110   5.274   3.055   6.499 -1.8837 -1.1245 -0.2590
11220SOL    HW235111   5.343   2.979   6.611 -1.5834  0.4828  0.6740
11221SOL     OW35112   2.349   5.900   4.246 -0.1475 -0.8069  0.0356
11221SOL    HW135113   2.433   5.945   4.235 -0.7091  0.0954 -0.6497
11221SOL    HW235114   2.325   5.872   4.158 -0.4622 -1.2668  0.2626
11222SOL     OW35115   6.374   2.268   0.192 -0.0379  0.0611  0.0550
11222SOL    HW135116   6.342   2.258   0.281  1.1197 -1.3735  0.3356
11222SOL    HW235117   6.462   2.231   0.193  0.1589  0.3982 -1.5875
11223SOL     OW35118   5.501   6.831   1.319  0.2291  0.0186 -0.1631
11223SOL    HW135119   5.502   6.881   1.400  0.9197 -0.8030  0.3448
11223SOL    HW235120   5.476   6.895   1.252 -2.1854  0.3414  0.9218
11224SOL     OW35121   2.000   6.518   1.959  0.2928 -0.1490  0.8855
11224SOL    HW135122   1.934   6.495   1.894  0.5371  0.9342  0.2289
11224SOL    HW235123   2.083   6.508   1.913  0.5278 -0.3902  1.3548
11225SOL     OW35124   6.317   2.007   0.866  0.1003 -0.2780 -0.3300
11225SOL    HW135125   6.400   2.054   0.871  0.0396 -0.3225  1.7186
11225SOL    HW235126   6.250   2.075   0.877 -0.0209 -0.6349  1.3190
11226SOL     OW35127   5.360   6.057   0.239  0.5824  0.4882 -0.0173
11226SOL    HW135128   5.399   6.022   0.159  0.2407  0.7197 -0.2886
11226SOL    HW235129   5.321   6.140   0.212 -0.3139  0.1525  0.1830
11227SOL     OW35130   2.001   6.287   0.722  0.5220 -0.0612  0.3716
11227SOL    HW135131   1.963   6.279   0.809  0.3686 -0.9282  0.2378
11227SOL    HW235132   2.011   6.381   0.708 -0.3003  0.1215  0.9600
11228SOL     OW35133   1.435   6.039   1.654 -0.0590  0.2175  0.0352
11228SOL    HW135134   1.489   6.008   1.727  0.4266  0.5945 -0.1555
11228SOL    HW235135   1.457   5.980   1.582 -0.4525 -0.0818  0.1512
11229SOL     OW35136   0.206   5.644   5.814 -0.1148  0.4846 -0.4242
11229SOL    HW135137   0.143   5.685   5.755 -1.7208  1.6136  1.9395
11229SOL    HW235138   0.157   5.573   5.856 -0.2560  1.9818  2.1602
11230SOL     OW35139   2.310   2.860   3.018  0.4800  0.3034  0.1988
11230SOL    HW135140   2.246   2.914   2.971 -0.4190 -1.1276 -0.2660
11230SOL    HW235141   2.307   2.894   3.108  0.6793  1.6759 -0.2899
11231SOL     OW35142   5.761   5.887   5.552  0.4491  0.1415 -0.7285
11231SOL    HW135143   5.789   5.927   5.634  0.3894  1.2498 -1.2316
11231SOL    HW235144   5.830   5.825   5.530  0.0886 -0.7582  0.5514
11232SOL     OW35145   4.550   4.154   1.071  0.2825 -0.1891  0.7389
11232SOL    HW135146   4.638   4.184   1.096  0.4783 -0.6900  0.6546
11232SOL    HW235147   4.493   4.189   1.139  0.3342  1.3778  0.0294
11233SOL     OW35148   2.877   2.862   4.890 -0.0264  0.2538 -0.1579
11233SOL    HW135149   2.862   2.957   4.897  0.1675  0.4558 -1.8829
11233SOL    HW235150   2.825   2.836   4.813 -0.3829 -1.1257  0.5224
11234SOL     OW35151   4.185   3.495   1.846 -0.6387 -0.3289  0.1502
11234SOL    HW135152   4.155   3.582   1.873  0.1414  0.4215 -1.2963
11234SOL    HW235153   4.277   3.492   1.873 -0.0791  0.1212 -1.5654
11235SOL     OW35154   2.820   5.746   2.437  0.5833  0.3368  0.0561
11235SOL    HW135155   2.835   5.818   2.376 -0.9879  0.1186 -0.6449
11235SOL    HW235156   2.859   5.670   2.395  1.5570  0.6185  0.4324
11236SOL     OW35157   7.105   4.682   0.495  0.5207  0.1826 -0.5229
11236SOL    HW135158   7.158   4.737   0.552  1.0491 -0.6358 -0.1973
11236SOL    HW235159   7.092   4.734   0.416  0.7466  0.8829 -0.1036
11237SOL     OW35160   6.933   2.915   2.092  0.0215 -0.6074 -0.5408
11237SOL    HW135161   6.876   2.927   2.168  1.2760  0.3601  0.2906
11237SOL    HW235162   6.883   2.858   2.033 -1.7469  0.1005  0.1946
11238SOL     OW35163   1.086   4.848   6.011 -0.5985  0.3811  0.7050
11238SOL    HW135164   1.071   4.778   6.075 -1.0621  1.3911  1.7165
11238SOL    HW235165   1.134   4.915   6.059  0.5100  0.4696 -0.4614
11239SOL     OW35166   4.375   6.251   0.390 -0.6613  0.1324 -0.1741
11239SOL    HW135167   4.432   6.288   0.457  0.4500 -0.7471 -0.5914
11239SOL    HW235168   4.382   6.156   0.402  0.3427 -0.0891 -2.1319
11240SOL     OW35169   4.661   4.520   6.964 -0.3435 -0.0490  0.5255
11240SOL    HW135170   4.725   4.468   6.916  0.7782  1.6019  0.1523
11240SOL    HW235171   4.599   4.455   6.999 -0.2388 -1.4355 -1.6803
11241SOL     OW35172   0.153   6.456   6.036 -0.2407 -0.4361 -0.2531
11241SOL    HW135173   0.105   6.455   6.119 -0.3957  1.3932 -0.2779
11241SOL    HW235174   0.167   6.549   6.017  0.3490 -0.8289 -1.9669
11242SOL     OW35175   2.257   5.239   1.010 -0.5196 -0.3910  0.2666
11242SOL    HW135176   2.270   5.194   0.926  1.1252 -1.2566  0.9439
11242SOL    HW235177   2.171   5.280   1.002 -1.2868 -2.1399 -1.0780
11243SOL     OW35178   5.327   0.354   0.584 -0.0756 -0.3304 -0.5206
11243SOL    HW135179   5.288   0.310   0.508 -0.7544 -0.8940  0.1381
11243SOL    HW235180   5.420   0.361   0.563 -0.0904 -1.3525 -0.9995
11244SOL     OW35181   3.782   3.740   3.779 -0.3247 -0.4332 -0.7806
11244SOL    HW135182   3.835   3.744   3.858 -1.5760 -0.6376  0.0845
11244SOL    HW235183   3.767   3.831   3.755 -0.5156 -0.3646 -0.3947
11245SOL     OW35184   0.933   7.112   3.472 -0.4231 -0.1936 -0.4706
11245SOL    HW135185   0.881   7.187   3.503 -1.1692 -1.0569  0.4396
11245SOL    HW235186   0.898   7.093   3.385 -0.5373  0.2325 -0.5197
11246SOL     OW35187   4.181   5.333   6.483  0.5128  0.3738  0.2474
11246SOL    HW135188   4.209   5.382   6.561  0.0161  0.7322  0.2048
11246SOL    HW235189   4.225   5.377   6.410  0.2258  0.6415  0.2306
11247SOL     OW35190   5.401   2.887   3.801  0.8545 -0.0314  0.0705
11247SOL    HW135191   5.487   2.930   3.798 -0.3535  2.5278 -0.4153
11247SOL    HW235192   5.347   2.937   3.739 -0.7814 -2.1105 -0.2829
11248SOL     OW35193   4.960   6.414   6.294  0.2050 -0.3794 -0.3925
11248SOL    HW135194   5.000   6.386   6.212  1.5219  0.2294  0.0195
11248SOL    HW235195   5.026   6.397   6.360 -0.5004 -0.0148  0.4244
11249SOL     OW35196   5.916   6.710   7.060 -0.1548 -0.2142 -0.4520
11249SOL    HW135197   5.911   6.649   6.986  1.3533 -0.9274  0.0051
11249SOL    HW235198   5.999   6.689   7.103 -0.5098  0.9036  0.8314
11250SOL     OW35199   0.821   5.771   1.822  0.1730  0.0713 -0.5093
11250SOL    HW135200   0.903   5.791   1.776  0.0165  1.0829 -0.3654
11250SOL    HW235201   0.801   5.681   1.796  2.0249 -0.6865  0.5133
11251SOL     OW35202   1.402   3.648   5.085 -0.1487 -0.0214 -0.6357
11251SOL    HW135203   1.471   3.635   5.020  0.0945  0.3363 -0.4476
11251SOL    HW235204   1.336   3.581   5.063  0.4581 -0.6662 -0.5283
11252SOL     OW35205   1.561   0.195   0.684  0.1466  0.0831  0.0060
11252SOL    HW135206   1.533   0.104   0.694  0.2875  0.0401  0.0036
11252SOL    HW235207   1.615   0.195   0.605 -1.4078  0.5186 -1.1122
11253SOL     OW35208   1.897   4.969   3.703  0.3648 -0.2317 -0.4906
11253SOL    HW135209   1.844   4.979   3.782  1.1283 -0.4177  0.0603
11253SOL    HW235210   1.984   4.946   3.736  0.5393 -0.9465 -1.4105
11254SOL     OW35211   1.815   4.283   1.170  0.1217 -0.5475  0.4608
11254SOL    HW135212   1.880   4.262   1.104  1.1441  0.9895  0.9126
11254SOL    HW235213   1.731   4.275   1.125  0.6243 -2.0292 -0.2865
11255SOL     OW35214   0.096   1.635   4.174 -0.0041 -0.4133  0.5240
11255SOL    HW135215   0.031   1.702   4.197  0.1529  0.9559 -2.5117
11255SOL    HW235216   0.167   1.685   4.132  0.7523 -2.3784 -0.6322
11256SOL     OW35217   3.169   2.833   5.982  0.3514  0.1707  0.0149
11256SOL    HW135218   3.244   2.824   5.922 -0.3743  0.3821 -0.9526
11256SOL    HW235219   3.176   2.922   6.016  1.2977 -0.2625  0.9912
11257SOL     OW35220   4.135   6.151   6.250  1.0112  0.9339 -0.3931
11257SOL    HW135221   4.106   6.084   6.188  1.5257 -0.3725  0.7264
11257SOL    HW235222   4.221   6.178   6.218  1.5076 -0.1125 -0.0074
11258SOL     OW35223   1.469   4.987   6.702 -0.2414  0.4038 -0.3145
11258SOL    HW135224   1.554   5.015   6.669 -0.0648  0.1203 -0.1124
11258SOL    HW235225   1.479   4.987   6.797 -0.3837  0.1190 -0.2969
11259SOL     OW35226   1.646   4.714   0.079  0.0033  0.0750  0.1468
11259SOL    HW135227   1.554   4.692   0.083  0.2496 -1.5868 -1.8975
11259SOL    HW235228   1.656   4.763  -0.003  0.9169  0.3994  0.4286
11260SOL     OW35229   4.783   5.271   2.911  0.5420  0.4420  0.4938
11260SOL    HW135230   4.719   5.259   2.981  0.2041 -0.6648  0.0138
11260SOL    HW235231   4.741   5.234   2.833  0.6116  2.2989 -0.4832
11261SOL     OW35232   3.977   7.026   3.236  0.1192 -0.5694 -0.3885
11261SOL    HW135233   3.883   7.011   3.244  0.5414 -2.6070  1.5858
11261SOL    HW235234   3.999   6.998   3.147 -1.0266 -0.5484 -0.6931
11262SOL     OW35235   5.735   4.654   4.693  0.1248  0.5465 -0.4977
11262SOL    HW135236   5.823   4.627   4.718 -0.3130 -1.1460 -0.6454
11262SOL    HW235237   5.741   4.748   4.681  1.4087  0.7920  1.5707
11263SOL     OW35238   4.244   5.832   0.793  0.8274  0.3565 -0.2202
11263SOL    HW135239   4.205   5.917   0.815  0.8040  0.6152 -1.2265
11263SOL    HW235240   4.329   5.855   0.754  1.0540 -0.1113 -0.0063
11264SOL     OW35241   3.071   1.920   2.527 -0.0940  0.3616 -0.1397
11264SOL    HW135242   2.998   1.864   2.500 -0.7502  0.2039  1.7990
11264SOL    HW235243   3.114   1.870   2.597  1.2838  0.9009 -0.5747
11265SOL     OW35244   6.194   0.160   2.558 -0.0267  0.1245 -0.1020
11265SOL    HW135245   6.099   0.164   2.567 -0.0317  0.1131 -0.1530
11265SOL    HW235246   6.219   0.247   2.525 -0.2569 -0.6119 -2.3770
11266SOL     OW35247   3.140   6.184   3.724  0.0461  0.3566  0.0775
11266SOL    HW135248   3.148   6.261   3.780 -1.0117 -2.2624  4.2906
11266SOL    HW235249   3.228   6.148   3.720  0.1619  0.6603 -0.1104
11267SOL     OW35250   3.432   1.893   6.810  0.6174  0.2544  0.6054
11267SOL    HW135251   3.516   1.928   6.778  0.4403  0.7677  0.6879
11267SOL    HW235252   3.445   1.883   6.904  0.2032  1.4920  0.8183
11268SOL     OW35253   5.902   3.515   3.208  0.5816 -0.1599  0.3879
11268SOL    HW135254   5.945   3.598   3.230  0.5917 -0.8695  3.4525
11268SOL    HW235255   5.907   3.463   3.288 -2.0539 -2.0202 -0.5091
11269SOL     OW35256   5.556   2.972   4.964 -0.4261  0.2257  0.0270
11269SOL    HW135257   5.498   3.010   4.898  0.2194  0.8923 -0.1776
11269SOL    HW235258   5.630   3.033   4.968  0.5048 -0.8680 -0.0979
11270SOL     OW35259   1.187   1.315   5.096  0.5869  0.0640  0.5148
11270SOL    HW135260   1.110   1.327   5.151 -0.7541 -0.3245 -1.1787
11270SOL    HW235261   1.230   1.237   5.132 -1.5699 -1.6261 -0.3253
11271SOL     OW35262   2.398   4.080   1.747  0.2447  0.3679  0.2690
11271SOL    HW135263   2.474   4.088   1.803  0.5771 -1.1859  0.0939
11271SOL    HW235264   2.387   4.167   1.708  1.8022  0.6735  0.4488
11272SOL     OW35265   1.450   1.338   1.249  0.3988 -0.2986 -0.2000
11272SOL    HW135266   1.363   1.376   1.252 -0.4139 -2.1090  0.7296
11272SOL    HW235267   1.453   1.278   1.323  1.6153 -1.9624 -1.5073
11273SOL     OW35268   6.214   4.194   6.731  0.1929 -0.1876  0.3145
11273SOL    HW135269   6.242   4.224   6.817 -1.4056  1.5321  0.3030
11273SOL    HW235270   6.130   4.151   6.747  0.3965 -0.8023 -0.2512
11274SOL     OW35271   4.777   6.919   5.973  0.1085  0.5700  0.2338
11274SOL    HW135272   4.871   6.911   5.988  0.4181 -1.3324 -2.0388
11274SOL    HW235273   4.769   6.946   5.881 -1.4790 -2.6795 -0.7481
11275SOL     OW35274   4.928   6.871   3.519  0.1116 -0.0721  0.0521
11275SOL    HW135275   4.940   6.957   3.479 -0.4586  0.5383  1.1421
11275SOL    HW235276   5.011   6.854   3.563  0.0276  0.1844  0.3129
11276SOL     OW35277   3.918   2.784   5.419  0.2339  0.8139 -0.1160
11276SOL    HW135278   3.876   2.826   5.494 -0.1079  0.9668 -0.3893
11276SOL    HW235279   4.000   2.748   5.453 -0.1303  0.4986  0.4302
11277SOL     OW35280   0.371   5.130   0.905 -0.6151  0.3659 -0.4654
11277SOL    HW135281   0.418   5.176   0.835  0.7346  1.7252  1.2499
11277SOL    HW235282   0.422   5.148   0.984 -3.3910  0.9734  1.3338
11278SOL     OW35283   6.378   6.278   2.438 -0.6671 -0.0284 -0.0541
11278SOL    HW135284   6.358   6.287   2.531  2.5145  0.3619  0.7188
11278SOL    HW235285   6.383   6.368   2.405 -1.1549 -0.1486 -0.4780
11279SOL     OW35286   5.270   4.737   1.701  0.5170  0.0664  0.4244
11279SOL    HW135287   5.304   4.824   1.679  0.7595 -0.5693 -1.9907
11279SOL    HW235288   5.203   4.721   1.635 -0.3729 -1.1376  1.5625
11280SOL     OW35289   3.902   3.433   4.752 -0.3808 -0.3254 -0.3570
11280SOL    HW135290   3.899   3.527   4.735  0.7927  0.3617  2.6290
11280SOL    HW235291   3.812   3.410   4.775 -0.2294  0.7267  1.5159
11281SOL     OW35292   4.133   6.971   2.076  0.2306  0.2046 -0.6280
11281SOL    HW135293   4.064   6.950   2.013 -0.9008 -1.4765  1.0418
11281SOL    HW235294   4.086   7.007   2.152  1.2605 -0.0677  0.1654
11282SOL     OW35295   2.040   0.733   1.578 -0.1280 -0.0856  0.1056
11282SOL    HW135296   2.010   0.801   1.638 -2.0681 -1.3976  0.7488
11282SOL    HW235297   1.963   0.678   1.564  1.5273 -2.6206  0.2583
11283SOL     OW35298   3.983   5.309   2.348  0.4378 -0.1315  0.1269
11283SOL    HW135299   3.924   5.380   2.322  0.2437 -0.7517 -1.2539
11283SOL    HW235300   4.048   5.350   2.405  1.0504  1.4129 -1.6017
11284SOL     OW35301   4.424   5.661   3.294  0.1971 -0.4293 -0.0156
11284SOL    HW135302   4.355   5.613   3.248  0.4654 -1.1152  0.2771
11284SOL    HW235303   4.460   5.597   3.356  0.7735  0.0642  0.1661
11285SOL     OW35304   1.897   0.141   2.216  0.6462  0.3757 -0.8587
11285SOL    HW135305   1.934   0.064   2.173  0.8860  0.0593 -0.0924
11285SOL    HW235306   1.805   0.142   2.188  0.3002 -0.9390  0.1553
11286SOL     OW35307   3.659   3.477   0.051  0.3480  0.0169  0.4431
11286SOL    HW135308   3.709   3.529   0.114  0.3378 -1.3890  1.6513
11286SOL    HW235309   3.690   3.508  -0.035  0.2312  2.0803  1.1007
11287SOL     OW35310   0.097   0.285   4.855 -0.4488 -0.1856  0.3400
11287SOL    HW135311   0.100   0.272   4.760  0.8350  1.5262  0.1107
11287SOL    HW235312   0.156   0.218   4.890 -1.3323 -1.1736  0.0119
11288SOL     OW35313   1.462   4.688   2.904 -0.0476 -0.0262  0.4164
11288SOL    HW135314   1.434   4.720   2.818  1.1386 -0.2124 -0.0598
11288SOL    HW235315   1.488   4.597   2.889  1.4136  0.3211  0.6741
11289SOL     OW35316   0.066   6.667   2.610  0.1887  0.0423 -0.4955
11289SOL    HW135317   0.016   6.701   2.685  0.7105  0.2544 -0.2397
11289SOL    HW235318   0.004   6.611   2.563  0.0384 -0.5981  0.4485
11290SOL     OW35319   3.957   6.099   3.518  0.6588  0.3036 -0.0407
11290SOL    HW135320   4.022   6.086   3.449  0.4265  0.8317 -0.3658
11290SOL    HW235321   3.997   6.163   3.577  0.2574  0.9818 -0.4887
11291SOL     OW35322   3.456   4.075   3.587 -0.0856 -0.3544  0.3423
11291SOL    HW135323   3.461   4.015   3.661 -0.9872 -1.1037 -0.1784
11291SOL    HW235324   3.383   4.042   3.534  0.6569  0.0537 -0.9830
11292SOL     OW35325   2.976   0.778   3.621 -0.5994 -0.5134 -0.2483
11292SOL    HW135326   2.983   0.710   3.687  0.2941  0.6532  0.9222
11292SOL    HW235327   2.982   0.732   3.537 -2.5351 -2.1128  0.4294
11293SOL     OW35328   3.514   3.936   6.461  0.2760 -0.4223  0.4497
11293SOL    HW135329   3.577   3.979   6.518 -1.0821 -0.1091  1.7917
11293SOL    HW235330   3.446   3.904   6.521 -0.4046 -1.5117 -0.8513
11294SOL     OW35331   3.102   4.927   3.798 -0.0591  0.0597  0.3271
11294SOL    HW135332   3.152   4.964   3.726  0.9880 -1.4689  0.2107
11294SOL    HW235333   3.036   4.872   3.756 -0.3040  0.2065  0.5163
11295SOL     OW35334   5.956   6.195   5.187 -0.8694 -0.9900  0.1883
11295SOL    HW135335   6.017   6.211   5.259  1.3023 -1.4449 -1.4448
11295SOL    HW235336   6.009   6.205   5.108 -2.9637 -1.3138 -1.3467
11296SOL     OW35337   2.377   1.679   5.643 -0.9307 -0.1102  0.4498
11296SOL    HW135338   2.394   1.588   5.667 -1.9117 -0.4086  0.0566
11296SOL    HW235339   2.282   1.682   5.628 -1.1480  1.3080  1.8618
11297SOL     OW35340   6.453   3.584   5.349  0.4790  0.5175 -0.4054
11297SOL    HW135341   6.517   3.633   5.402  1.0660 -0.6184 -0.0336
11297SOL    HW235342   6.445   3.500   5.394 -1.9112  0.8992  0.0179
11298SOL     OW35343   0.641   1.231   0.624 -0.0285 -0.8246 -1.1866
11298SOL    HW135344   0.557   1.269   0.651  0.0613 -0.2860 -1.6533
11298SOL    HW235345   0.698   1.307   0.610  0.4316 -1.1729 -1.2270
11299SOL     OW35346   6.210   6.718   4.606 -0.3359 -0.0602  0.4974
11299SOL    HW135347   6.118   6.733   4.587  0.0102  2.2283  0.4223
11299SOL    HW235348   6.210   6.672   4.690 -1.5514 -1.9535 -0.4565
11300SOL     OW35349   3.093   0.352   5.775  0.4914  0.1154 -0.1520
11300SOL    HW135350   3.054   0.314   5.853  1.7897 -0.7805  0.0829
11300SOL    HW235351   3.059   0.442   5.772 -0.8634 -0.3487  0.5075
11301SOL     OW35352   5.670   0.796   4.539 -0.4011  0.4750 -0.0554
11301SOL    HW135353   5.603   0.851   4.580 -1.1129 -1.5598  1.6794
11301SOL    HW235354   5.621   0.737   4.482 -0.2037 -1.1217  1.3297
11302SOL     OW35355   5.445   5.861   4.568  0.0561  0.1476 -0.2161
11302SOL    HW135356   5.388   5.789   4.593  1.4977 -0.6899  0.8166
11302SOL    HW235357   5.422   5.931   4.629  0.6016 -0.4324  0.6778
11303SOL     OW35358   5.900   0.329   3.861 -0.3850 -0.4401  0.4249
11303SOL    HW135359   5.827   0.273   3.834 -0.4374  0.2813 -0.9977
11303SOL    HW235360   5.965   0.268   3.895 -1.0282 -1.2402  0.2525
11304SOL     OW35361   1.987   2.767   5.690 -0.1930 -0.4231 -0.7074
11304SOL    HW135362   2.043   2.692   5.670 -0.3182 -0.9201  0.7231
11304SOL    HW235363   1.899   2.730   5.696  0.0025 -0.6687  2.2759
11305SOL     OW35364   6.097   3.972   1.940 -0.2608  0.2398  0.1260
11305SOL    HW135365   6.094   3.879   1.916 -2.2117  0.3783 -0.3223
11305SOL    HW235366   6.034   3.980   2.011  0.7469  1.0385  0.9590
11306SOL     OW35367   2.420   3.498   7.113 -0.1001 -0.2590 -0.1724
11306SOL    HW135368   2.424   3.472   7.206  1.3457  0.7908  0.0961
11306SOL    HW235369   2.338   3.460   7.081 -0.4916 -0.8830  1.4606
11307SOL     OW35370   0.226   5.844   6.315  0.2303 -0.1895  0.0230
11307SOL    HW135371   0.200   5.806   6.230 -1.1836 -0.6628  0.6371
11307SOL    HW235372   0.265   5.928   6.292 -0.9100  0.0811 -1.0546
11308SOL     OW35373   1.224   0.045   1.937  0.4637  0.2695 -0.5442
11308SOL    HW135374   1.231   0.126   1.988 -0.2060  0.0861 -0.1417
11308SOL    HW235375   1.233   0.073   1.846  1.6656  0.6032 -0.3356
11309SOL     OW35376   5.960   2.614   6.689  0.7474 -0.5561 -0.2469
11309SOL    HW135377   5.912   2.593   6.610  1.0263  0.2890 -0.6547
11309SOL    HW235378   5.911   2.686   6.729  0.2221 -1.4250  0.7210
11310SOL     OW35379   4.762   4.767   6.504  0.1364 -0.1868  0.1227
11310SOL    HW135380   4.838   4.713   6.525 -0.7726 -1.3377  0.5589
11310SOL    HW235381   4.742   4.813   6.585  0.7340  0.5987 -0.1674
11311SOL     OW35382   5.792   3.229   0.463  0.6777 -0.1447  0.2350
11311SOL    HW135383   5.869   3.248   0.410  0.6869 -0.8767 -0.0294
11311SOL    HW235384   5.780   3.134   0.454 -2.1317  0.2930 -2.3200
11312SOL     OW35385   6.389   4.908   3.538  0.1739  0.3326  0.1604
11312SOL    HW135386   6.381   4.833   3.597 -0.8066 -0.0445 -0.4369
11312SOL    HW235387   6.341   4.978   3.582 -0.7951 -0.0279 -0.3131
11313SOL     OW35388   1.791   5.127   3.124 -0.5489 -0.2545  0.1497
11313SOL    HW135389   1.824   5.052   3.074 -2.5561 -0.4939 -0.9124
11313SOL    HW235390   1.753   5.089   3.203 -0.2402 -0.1913  0.3316
11314SOL     OW35391   0.744   1.082   2.218 -0.2077  0.5159  0.4421
11314SOL    HW135392   0.757   1.177   2.227  1.4008  0.5520 -1.4830
11314SOL    HW235393   0.814   1.044   2.271 -0.0196  0.4362  0.1373
11315SOL     OW35394   2.056   2.343   2.321  0.5412 -0.0985 -0.0525
11315SOL    HW135395   2.095   2.419   2.278 -1.4553  1.1333  0.2096
11315SOL    HW235396   2.075   2.357   2.414  1.3404 -0.6544 -0.1206
11316SOL     OW35397   2.195   4.569   6.906 -0.5270 -0.0045 -0.3277
11316SOL    HW135398   2.110   4.543   6.871 -0.4805  0.4721 -0.8035
11316SOL    HW235399   2.256   4.554   6.834 -0.1832 -0.4605  0.0526
11317SOL     OW35400   0.205   1.329   2.019  0.1635  0.0511  0.2795
11317SOL    HW135401   0.287   1.284   2.042  1.3277  1.7981 -0.2797
11317SOL    HW235402   0.142   1.258   2.006  0.9691 -1.2900  2.8618
11318SOL     OW35403   3.383   4.946   4.681 -0.8587  0.3091 -0.6217
11318SOL    HW135404   3.346   5.003   4.613 -0.5115  0.0312 -1.0478
11318SOL    HW235405   3.359   4.857   4.653 -2.4449  0.2791  0.6542
11319SOL     OW35406   4.909   3.366   5.512 -0.0736  0.0995  0.0763
11319SOL    HW135407   4.839   3.309   5.544  1.7089 -0.4680  3.4205
11319SOL    HW235408   4.923   3.339   5.422 -2.5561 -1.3285  0.0360
11320SOL     OW35409   2.665   6.154   2.514 -0.0358 -0.4782 -0.3534
11320SOL    HW135410   2.688   6.227   2.571 -2.0294  0.5149 -0.7613
11320SOL    HW235411   2.579   6.125   2.545 -0.5465 -0.7946 -1.9914
11321SOL     OW35412   6.673   0.893   5.738  0.2067 -0.1556  0.4022
11321SOL    HW135413   6.581   0.893   5.712  0.6896 -1.1186 -1.4952
11321SOL    HW235414   6.700   0.802   5.733  1.5431  0.2407 -0.1793
11322SOL     OW35415   5.689   3.753   1.687  0.4111  0.3375  0.4698
11322SOL    HW135416   5.691   3.658   1.699  0.7515  0.4892  1.6658
11322SOL    HW235417   5.621   3.767   1.621  0.3219 -0.7281  0.3167
11323SOL     OW35418   2.945   5.706   2.693  0.2107  0.2265  0.2144
11323SOL    HW135419   2.913   5.693   2.604  0.0549 -0.0153  0.3046
11323SOL    HW235420   2.924   5.797   2.713 -2.1736 -0.4340  0.9713
11324SOL     OW35421   3.747   3.976   0.093  0.4417 -0.0614  0.4270
11324SOL    HW135422   3.782   3.909   0.152 -2.4634 -2.6935 -0.5475
11324SOL    HW235423   3.668   4.007   0.136  1.6097  2.7946  0.7568
11325SOL     OW35424   2.956   3.487   0.768 -0.5314 -0.2976 -0.0408
11325SOL    HW135425   2.962   3.512   0.675 -2.1432  1.5301  0.2597
11325SOL    HW235426   3.005   3.555   0.814 -1.6384  0.1123  0.5673
11326SOL     OW35427   2.488   3.766   1.792 -0.2989 -0.4006 -0.0796
11326SOL    HW135428   2.475   3.759   1.887  0.2463 -1.1298 -0.0555
11326SOL    HW235429   2.496   3.860   1.776  1.2547 -0.3471  0.8344
11327SOL     OW35430   2.514   5.787   5.848 -0.6862 -0.0128  0.2190
11327SOL    HW135431   2.465   5.867   5.827 -0.3064  0.6821  1.8122
11327SOL    HW235432   2.480   5.760   5.933  0.4154 -0.5516  0.5029
11328SOL     OW35433   0.386   0.348   2.176  0.0703 -0.6984 -0.2092
11328SOL    HW135434   0.374   0.301   2.094  0.2997 -0.3412 -0.4529
11328SOL    HW235435   0.415   0.282   2.239 -1.2436 -1.1994 -0.1125
11329SOL     OW35436   0.188   6.748   4.920  0.2350 -0.2441  0.3633
11329SOL    HW135437   0.143   6.675   4.880  1.2302 -0.4558 -0.4189
11329SOL    HW235438   0.120   6.814   4.934 -0.4085 -0.7593 -0.2573
11330SOL     OW35439   2.199   1.231   2.610  0.0332  0.3749 -0.1820
11330SOL    HW135440   2.181   1.206   2.701  0.2408  1.9764  0.3266
11330SOL    HW235441   2.295   1.233   2.604  0.0792 -1.6512 -1.0321
11331SOL     OW35442   2.832   1.828   2.446 -0.1010  0.5721  0.1495
11331SOL    HW135443   2.767   1.870   2.502 -2.6882 -1.4239 -1.1609
11331SOL    HW235444   2.800   1.841   2.357  1.4693 -0.2504 -0.5893
11332SOL     OW35445   4.314   5.134   5.130 -0.2649 -0.3284  0.5238
11332SOL    HW135446   4.294   5.171   5.044  0.2632 -2.1947 -0.4754
11332SOL    HW235447   4.309   5.208   5.190  1.5011  1.5159 -1.4287
11333SOL     OW35448   6.181   6.248   0.939  0.3244 -0.5723  0.1880
11333SOL    HW135449   6.250   6.268   1.003  2.5410 -2.1229 -1.5281
11333SOL    HW235450   6.105   6.225   0.992  1.3641  0.3746  2.2105
11334SOL     OW35451   2.830   6.780   2.076  0.3981  0.0613  0.1563
11334SOL    HW135452   2.776   6.858   2.083  0.2467 -0.0056 -0.2177
11334SOL    HW235453   2.911   6.810   2.034  0.3773  0.0346  0.0973
11335SOL     OW35454   6.523   5.711   4.354 -0.0329 -0.2321  0.3709
11335SOL    HW135455   6.469   5.672   4.286 -1.1507 -0.2658  1.2572
11335SOL    HW235456   6.597   5.651   4.363  0.7837  0.3898 -1.6361
11336SOL     OW35457   2.727   5.989   4.922  0.4615 -0.1535 -0.2181
11336SOL    HW135458   2.642   5.950   4.942  0.8848 -1.0356 -0.0432
11336SOL    HW235459   2.778   5.977   5.002  0.1953  2.0320  0.3327
11337SOL     OW35460   0.213   7.135   3.735  0.6307  0.3689 -0.0025
11337SOL    HW135461   0.283   7.201   3.740 -0.0697  1.1978 -0.7981
11337SOL    HW235462   0.167   7.156   3.654  0.1103 -0.8319 -0.0308
11338SOL     OW35463   3.103   0.451   4.118  0.0715 -0.1138 -0.9036
11338SOL    HW135464   3.134   0.364   4.145 -0.2971  0.3959  1.3965
11338SOL    HW235465   3.159   0.474   4.044  1.0607 -1.7744 -0.7298
11339SOL     OW35466   2.320   5.544   0.461  0.1546 -0.5398 -0.3987
11339SOL    HW135467   2.313   5.449   0.474 -0.7521 -0.3463  0.6320
11339SOL    HW235468   2.280   5.582   0.539 -1.8225  0.7088 -1.9234
11340SOL     OW35469   2.720   4.879   3.548 -0.2247  0.3480 -0.5096
11340SOL    HW135470   2.812   4.861   3.534  0.0731 -0.6365  2.1371
11340SOL    HW235471   2.678   4.793   3.553 -0.4146  0.4957  2.8500
11341SOL     OW35472   3.017   2.974   3.684  0.2494 -0.0478  0.6261
11341SOL    HW135473   3.040   3.064   3.662 -1.5109  0.2682 -0.0641
11341SOL    HW235474   2.973   2.941   3.606  0.5107 -1.3778  1.0239
11342SOL     OW35475   6.439   2.796   5.809  0.1291  0.2925  0.1035
11342SOL    HW135476   6.510   2.861   5.814  0.4264  0.0338 -0.6060
11342SOL    HW235477   6.448   2.758   5.722 -0.8079  0.1574  0.0575
11343SOL     OW35478   1.307   3.180   0.871 -0.1088 -0.5004 -0.0628
11343SOL    HW135479   1.359   3.143   0.943  0.9095  1.7175  0.4464
11343SOL    HW235480   1.253   3.247   0.913 -1.1832 -0.7314 -1.0539
11344SOL     OW35481   2.191   3.625   3.152 -0.5675  0.1152  0.4844
11344SOL    HW135482   2.235   3.707   3.131 -2.5086  1.0642 -0.1226
11344SOL    HW235483   2.262   3.565   3.177  0.9388  1.8044  0.4508
11345SOL     OW35484   0.893   1.026   3.270 -0.1487  0.0593  0.3572
11345SOL    HW135485   0.812   1.060   3.232  1.6443  2.4871 -1.6713
11345SOL    HW235486   0.903   1.073   3.353  0.0843  1.2315 -0.3136
11346SOL     OW35487   0.075   1.902   1.903  0.5182  0.2648  0.3463
11346SOL    HW135488   0.114   1.883   1.988  0.7338 -0.2590  0.1358
11346SOL    HW235489   0.007   1.835   1.892  0.4055  0.4089  0.1632
11347SOL     OW35490   2.590   2.847   5.547  0.2248 -0.5108  0.1863
11347SOL    HW135491   2.675   2.828   5.509  0.8763  1.9050  0.2731
11347SOL    HW235492   2.591   2.803   5.632  1.5306 -0.2094  0.3440
11348SOL     OW35493   3.406   4.616   3.031 -0.1340  0.2722 -0.3889
11348SOL    HW135494   3.499   4.616   3.012 -0.4054 -3.6639 -2.7869
11348SOL    HW235495   3.388   4.528   3.063 -3.3248  0.0284 -2.3824
11349SOL     OW35496   0.782   0.211   1.166  0.6347  0.5912 -0.5751
11349SOL    HW135497   0.731   0.269   1.110  1.1588 -0.3519 -2.0839
11349SOL    HW235498   0.724   0.136   1.182  0.6888  0.6023 -0.3246
11350SOL     OW35499   2.064   1.525   3.473  0.0983  0.2009 -0.8049
11350SOL    HW135500   2.085   1.446   3.522 -1.3342 -0.1011 -0.6186
11350SOL    HW235501   2.083   1.503   3.382 -0.9968 -0.6393 -0.8464
11351SOL     OW35502   6.995   5.183   1.774 -0.2984  0.0548  0.1364
11351SOL    HW135503   6.912   5.220   1.745 -0.5897 -0.8510 -0.2386
11351SOL    HW235504   6.988   5.090   1.753 -0.1555 -0.5037  2.2857
11352SOL     OW35505   1.327   6.063   1.960  0.1579 -0.3891  0.2034
11352SOL    HW135506   1.302   6.156   1.962  2.1718  0.4311 -3.5528
11352SOL    HW235507   1.252   6.018   1.922 -1.2091 -0.6057  2.9104
11353SOL     OW35508   0.061   2.340   6.698 -0.2493 -0.6098 -0.3597
11353SOL    HW135509   0.111   2.338   6.780 -1.1220 -2.8095  0.1783
11353SOL    HW235510   0.120   2.303   6.633  1.0587  2.6223 -1.2128
11354SOL     OW35511   2.326   1.639   1.128 -0.5110  0.0015  0.7171
11354SOL    HW135512   2.263   1.567   1.135  1.4776 -1.9247  0.1872
11354SOL    HW235513   2.366   1.628   1.042 -1.3411  2.9042 -0.1544
11355SOL     OW35514   5.576   1.725   5.131  0.1624  0.2249  0.0061
11355SOL    HW135515   5.531   1.687   5.056  0.2549 -0.9348  0.5225
11355SOL    HW235516   5.632   1.793   5.094 -0.3935  0.2196 -0.8746
11356SOL     OW35517   1.630   1.163   3.070 -0.2811 -0.0878  0.4711
11356SOL    HW135518   1.664   1.252   3.084 -0.8476  0.0810  0.8080
11356SOL    HW235519   1.682   1.129   2.997  0.4489  0.2453  0.8305
11357SOL     OW35520   1.944   3.964   0.254 -0.0874  0.7111  0.4019
11357SOL    HW135521   1.958   3.888   0.196 -0.8438  0.8531  0.0229
11357SOL    HW235522   1.955   4.040   0.196  0.8879  0.9104  0.8266
11358SOL     OW35523   3.349   4.262   1.931  0.2471 -0.0050  0.0824
11358SOL    HW135524   3.418   4.203   1.903 -0.1095 -0.3098 -0.1657
11358SOL    HW235525   3.342   4.248   2.026  0.0496 -0.4915 -0.0007
11359SOL     OW35526   0.494   5.722   3.822  0.3033 -0.0167 -0.3704
11359SOL    HW135527   0.443   5.802   3.832  0.6964  0.4670 -1.8796
11359SOL    HW235528   0.452   5.676   3.750  1.0234 -0.4017 -0.5518
11360SOL     OW35529   3.993   5.749   1.133 -0.1888  0.1859  0.3120
11360SOL    HW135530   3.907   5.730   1.096  0.5489 -0.8657 -0.9642
11360SOL    HW235531   3.999   5.845   1.134 -1.4218  0.2728  0.6004
11361SOL     OW35532   2.376   0.934   1.489 -0.3446  0.1921 -0.2656
11361SOL    HW135533   2.427   1.015   1.490 -0.9029  0.5601 -0.8315
11361SOL    HW235534   2.345   0.927   1.399 -0.3449 -0.6271 -0.2051
11362SOL     OW35535   2.790   5.890   0.659  0.5712  0.0534 -0.6224
11362SOL    HW135536   2.755   5.809   0.620 -2.0053 -0.6043  2.6274
11362SOL    HW235537   2.874   5.865   0.696  0.8380 -0.5165 -1.5723
11363SOL     OW35538   3.038   0.606   2.070 -0.4655 -0.1919 -0.4116
11363SOL    HW135539   3.016   0.655   2.149 -0.0295  0.3654 -0.6286
11363SOL    HW235540   3.054   0.673   2.003 -2.6149 -0.6664 -1.4872
11364SOL     OW35541   4.774   4.297   2.579 -0.9787 -1.0275 -0.0654
11364SOL    HW135542   4.727   4.254   2.650 -1.1191  3.5107  3.0306
11364SOL    HW235543   4.866   4.291   2.602 -0.8284 -1.4204 -0.7352
11365SOL     OW35544   6.833   5.674   4.721 -0.2959 -0.2616 -0.0596
11365SOL    HW135545   6.874   5.729   4.654  0.9684  1.5610  2.0568
11365SOL    HW235546   6.906   5.632   4.765 -0.8740  0.5847  1.7903
11366SOL     OW35547   5.509   2.205   5.703  0.2347  0.0150 -0.0052
11366SOL    HW135548   5.518   2.248   5.617 -0.7126  2.2945  0.9581
11366SOL    HW235549   5.439   2.141   5.690  0.2505  0.1688 -0.9674
11367SOL     OW35550   3.986   2.355   5.334  0.0963  0.7557 -0.0177
11367SOL    HW135551   3.937   2.335   5.415  1.3914 -0.2776  0.5475
11367SOL    HW235552   4.078   2.346   5.359  0.5171  0.0184 -1.7087
11368SOL     OW35553   3.558   3.920   6.189 -0.1322 -0.3396 -0.2719
11368SOL    HW135554   3.573   3.826   6.181 -3.1191 -0.8658 -1.1602
11368SOL    HW235555   3.539   3.935   6.281 -0.6540 -0.8158 -0.3004
11369SOL     OW35556   5.874   2.062   5.749  0.3859  0.3466 -0.1717
11369SOL    HW135557   5.795   2.082   5.699 -0.0261 -2.0083 -0.5536
11369SOL    HW235558   5.933   2.021   5.686  0.6285 -0.8800  0.8095
11370SOL     OW35559   2.659   4.571   3.239  0.3805  0.0620  0.1946
11370SOL    HW135560   2.623   4.565   3.151 -0.1029  0.2549  0.3760
11370SOL    HW235561   2.750   4.599   3.226  0.7006 -1.1797 -0.3035
11371SOL     OW35562   6.307   4.961   5.147 -0.9095 -0.1948 -0.0131
11371SOL    HW135563   6.296   5.049   5.183 -2.6489 -0.4323  0.1001
11371SOL    HW235564   6.271   4.903   5.214 -1.1016 -0.8889 -0.7066
11372SOL     OW35565   0.249   0.501   0.578  0.1029  0.0909  0.0480
11372SOL    HW135566   0.238   0.561   0.504  1.1724  0.3290  0.0588
11372SOL    HW235567   0.303   0.550   0.641 -0.2442 -0.3502  0.6966
11373SOL     OW35568   6.663   1.731   6.363 -0.4315 -0.1205 -0.0060
11373SOL    HW135569   6.672   1.710   6.456  1.2754 -1.5964 -0.4422
11373SOL    HW235570   6.570   1.715   6.344 -0.6265 -0.6125  1.2636
11374SOL     OW35571   5.499   3.475   5.992 -0.8990  0.2951 -0.5640
11374SOL    HW135572   5.419   3.466   5.939 -1.9507 -0.0723  1.0091
11374SOL    HW235573   5.509   3.390   6.035  1.0151 -0.0438 -1.5820
11375SOL     OW35574   4.967   5.289   1.604 -0.3401  0.0960 -0.2190
11375SOL    HW135575   4.882   5.258   1.633  0.5122 -1.0600  1.1859
11375SOL    HW235576   5.025   5.275   1.679  0.8607  1.8933 -0.7427
11376SOL     OW35577   3.662   0.750   0.235 -0.1171 -0.5365  0.2129
11376SOL    HW135578   3.577   0.727   0.271 -0.1485 -0.0496  0.4629
11376SOL    HW235579   3.693   0.670   0.193 -1.3705 -0.2919 -1.2287
11377SOL     OW35580   7.062   5.499   5.662 -0.4364 -0.1670 -0.0124
11377SOL    HW135581   7.079   5.579   5.614  0.7342 -0.6419 -0.4284
11377SOL    HW235582   7.121   5.504   5.738 -0.2215 -0.6954 -0.1365
11378SOL     OW35583   3.454   0.707   1.684 -0.1821 -0.4401  0.2888
11378SOL    HW135584   3.469   0.699   1.589  1.4094  1.1622  0.3527
11378SOL    HW235585   3.530   0.756   1.716 -1.3966  0.3033  2.1732
11379SOL     OW35586   2.031   0.149   0.110 -0.3310 -0.3696  0.0914
11379SOL    HW135587   2.046   0.101   0.192  1.8812  0.6678  0.3776
11379SOL    HW235588   2.083   0.229   0.120 -2.1194  1.0428 -1.2864
11380SOL     OW35589   2.620   0.075   4.623  0.5018 -0.7053 -0.1865
11380SOL    HW135590   2.570   0.154   4.607 -0.7721 -1.5144 -0.3186
11380SOL    HW235591   2.712   0.104   4.623  0.0044  1.0253  1.4266
11381SOL     OW35592   4.782   6.675   3.245 -0.0613 -0.1297  0.1896
11381SOL    HW135593   4.706   6.618   3.236  0.3213 -0.6449  0.2011
11381SOL    HW235594   4.856   6.622   3.216  0.1276  0.8110 -1.1108
11382SOL     OW35595   0.159   4.130   7.023 -0.0074  0.1411 -0.1134
11382SOL    HW135596   0.087   4.139   7.086 -0.0411 -1.6248  0.1572
11382SOL    HW235597   0.115   4.126   6.937  0.0258  2.3495 -0.2740
11383SOL     OW35598   3.197   0.328   6.501 -0.3408  0.2954  0.4004
11383SOL    HW135599   3.130   0.284   6.449 -1.2017  1.0063  0.8967
11383SOL    HW235600   3.245   0.256   6.543  0.8553 -0.3596 -1.8614
11384SOL     OW35601   4.750   4.806   2.275 -0.4444 -0.1774 -0.6325
11384SOL    HW135602   4.810   4.732   2.285  0.0268  0.2862  0.0483
11384SOL    HW235603   4.707   4.814   2.360  0.4123  1.0878 -0.2870
11385SOL     OW35604   6.253   4.280   2.254 -0.6845 -0.4690 -0.2792
11385SOL    HW135605   6.160   4.272   2.232 -0.7044 -0.9274 -0.0440
11385SOL    HW235606   6.256   4.269   2.349 -0.1237 -3.3087 -0.5114
11386SOL     OW35607   6.579   6.463   1.879  0.2291 -0.2982 -0.2969
11386SOL    HW135608   6.520   6.516   1.825 -0.0759 -0.6316 -0.2995
11386SOL    HW235609   6.610   6.395   1.819 -0.6931 -1.1176  0.1283
11387SOL     OW35610   6.913   5.084   4.360 -0.9645 -0.0171 -0.5299
11387SOL    HW135611   6.857   5.017   4.399  0.9641 -1.5414 -0.2071
11387SOL    HW235612   6.995   5.038   4.339 -0.1357  1.8888 -1.7976
11388SOL     OW35613   5.714   0.498   6.981 -0.0382  0.0425  0.4566
11388SOL    HW135614   5.729   0.424   6.923  1.0687  0.2802  0.4297
11388SOL    HW235615   5.618   0.506   6.984 -0.1482 -0.7702 -0.3051
11389SOL     OW35616   1.073   4.493   5.805 -0.4308  0.7357 -0.2428
11389SOL    HW135617   1.120   4.426   5.855 -2.6905 -1.2125 -0.5407
11389SOL    HW235618   1.142   4.539   5.756  1.1955 -1.7855 -0.5099
11390SOL     OW35619   0.055   0.061   3.529 -0.0173 -0.1296 -0.2218
11390SOL    HW135620   0.013   0.134   3.483 -0.0114  0.5286  0.7924
11390SOL    HW235621   0.023  -0.017   3.484 -0.7347  0.4630 -0.7553
11391SOL     OW35622   4.151   6.940   1.021  0.0511  0.6349  0.2879
11391SOL    HW135623   4.240   6.929   1.057  1.6436  0.7512 -3.2343
11391SOL    HW235624   4.143   7.034   1.007 -1.1461  0.7578  1.5748
11392SOL     OW35625   5.359   5.670   2.522  0.4188  0.0159 -0.1859
11392SOL    HW135626   5.440   5.687   2.473  0.2528  1.5131  0.0297
11392SOL    HW235627   5.389   5.641   2.608  0.7054 -0.4756 -0.4394
11393SOL     OW35628   1.776   6.047   6.350  0.3780  0.3474 -0.0207
11393SOL    HW135629   1.729   6.065   6.269 -0.4516  3.6683  0.9943
11393SOL    HW235630   1.708   6.021   6.412  0.3198  1.7609  0.5595
11394SOL     OW35631   0.264   7.008   5.986  0.2279 -0.0289  0.4990
11394SOL    HW135632   0.339   6.950   5.976 -0.3286 -0.3305 -3.2932
11394SOL    HW235633   0.294   7.078   6.044  3.1466 -0.5720 -0.2319
11395SOL     OW35634   6.972   2.204   1.093  0.8160 -0.2528 -0.2490
11395SOL    HW135635   7.036   2.235   1.029  0.2899  1.3964 -0.0164
11395SOL    HW235636   6.898   2.263   1.083  0.0483 -1.0194  0.7323
11396SOL     OW35637   4.371   0.882   4.733 -0.1126 -0.1633  0.0688
11396SOL    HW135638   4.354   0.798   4.689  0.3277 -0.1218 -0.1855
11396SOL    HW235639   4.306   0.942   4.696  0.9228  0.1427 -1.3340
11397SOL     OW35640   0.958   0.102   6.280 -0.3904  0.5991  0.2591
11397SOL    HW135641   0.905   0.116   6.358  0.6538  2.0736  0.7465
11397SOL    HW235642   0.901   0.125   6.207 -0.4528  2.1582  0.7724
11398SOL     OW35643   3.742   6.882   3.493  0.8257 -0.0043  1.1652
11398SOL    HW135644   3.810   6.887   3.560 -0.9003  0.3065  2.9861
11398SOL    HW235645   3.666   6.848   3.540 -0.4496  0.2158 -0.6778
11399SOL     OW35646   5.123   2.743   4.972  0.2480  0.5507 -0.4889
11399SOL    HW135647   5.165   2.678   4.916 -0.3567  0.5188 -0.9105
11399SOL    HW235648   5.150   2.827   4.936 -0.6417  0.5343 -1.2267
11400SOL     OW35649   4.933   3.069   5.139  0.0734  0.2635  0.7279
11400SOL    HW135650   5.019   3.105   5.118  0.0861 -0.7411 -1.1224
11400SOL    HW235651   4.872   3.124   5.089 -0.3003  0.4197  1.3419
11401SOL     OW35652   2.669   5.926   4.666 -0.3024 -0.3741  0.2274
11401SOL    HW135653   2.703   5.965   4.746 -1.2242 -1.4635  1.1869
11401SOL    HW235654   2.692   5.833   4.674 -0.2466 -0.4649 -0.8625
11402SOL     OW35655   3.482   4.515   5.813  0.4444  0.4774  0.0516
11402SOL    HW135656   3.540   4.572   5.763  0.5870 -0.4700 -0.9052
11402SOL    HW235657   3.394   4.537   5.781  0.4362  0.6485  0.1911
11403SOL     OW35658   2.468   2.697   1.477 -0.2995 -0.3680 -0.2980
11403SOL    HW135659   2.390   2.644   1.494  0.2416 -1.0193  0.2048
11403SOL    HW235660   2.530   2.637   1.435 -0.1671  0.2179 -0.9719
11404SOL     OW35661   6.742   4.915   1.997  0.3324  0.4822  0.1560
11404SOL    HW135662   6.828   4.892   2.032  1.5123  1.5803 -1.8325
11404SOL    HW235663   6.702   4.968   2.066  1.4056  0.2667  0.9757
11405SOL     OW35664   2.093   0.997   2.729  0.1765  0.3075  0.0007
11405SOL    HW135665   2.058   0.949   2.804 -0.3581  1.5583  0.5777
11405SOL    HW235666   2.056   0.953   2.653 -0.6706  0.0854  0.5288
11406SOL     OW35667   2.696   0.300   6.790 -0.2581  0.3112  0.1292
11406SOL    HW135668   2.646   0.374   6.824 -0.8025 -1.2478  3.0796
11406SOL    HW235669   2.634   0.227   6.790  0.1840 -0.2217 -2.9432
11407SOL     OW35670   1.493   6.102   3.364  0.6147  0.5328 -0.1125
11407SOL    HW135671   1.483   6.115   3.458  2.2637 -1.1290  0.3592
11407SOL    HW235672   1.547   6.176   3.335 -1.4299  2.0795 -0.1707
11408SOL     OW35673   0.498   6.292   5.532  0.1645  0.1588 -1.2201
11408SOL    HW135674   0.473   6.325   5.619  1.9732 -2.2130  0.2912
11408SOL    HW235675   0.492   6.370   5.476 -0.3369  1.9609  1.1296
11409SOL     OW35676   0.272   2.413   2.484 -0.2178 -0.1402  0.0574
11409SOL    HW135677   0.362   2.433   2.460 -0.8770  2.6795 -0.4853
11409SOL    HW235678   0.239   2.359   2.412  1.0512 -1.3871  0.3722
11410SOL     OW35679   4.038   6.440   0.990  0.0764  0.2468  0.0971
11410SOL    HW135680   4.036   6.534   1.004 -0.4797  0.1980  0.3914
11410SOL    HW235681   4.036   6.429   0.895 -0.1217  0.5286  0.0692
11411SOL     OW35682   6.567   0.431   2.799 -0.7820  0.1634 -0.4024
11411SOL    HW135683   6.586   0.430   2.893  1.6248  2.8265 -0.7308
11411SOL    HW235684   6.545   0.340   2.778  0.6305 -0.9246  2.3477
11412SOL     OW35685   1.202   4.992   1.841 -0.0174  0.5134 -0.2832
11412SOL    HW135686   1.152   5.064   1.879  0.5128  0.2757  0.9141
11412SOL    HW235687   1.243   5.029   1.764  2.0899  2.2137  1.5114
11413SOL     OW35688   2.509   1.630   2.289  0.3236 -0.1758 -0.4665
11413SOL    HW135689   2.563   1.707   2.273  2.1896 -0.8777  1.8713
11413SOL    HW235690   2.449   1.655   2.359  0.1572 -0.5261 -0.4775
11414SOL     OW35691   2.629   4.123   1.875 -0.3929  0.0087  0.1521
11414SOL    HW135692   2.654   4.055   1.937  2.9395 -0.0492 -1.0387
11414SOL    HW235693   2.627   4.203   1.926  0.9182 -0.2446  0.6386
11415SOL     OW35694   2.788   1.543   4.587 -0.7525  0.1029 -0.3715
11415SOL    HW135695   2.852   1.514   4.653 -0.9867  0.1058 -0.1386
11415SOL    HW235696   2.726   1.470   4.581  1.0292 -1.3462 -2.9880
11416SOL     OW35697   5.517   1.022   1.328  0.0671  0.4344  1.0297
11416SOL    HW135698   5.508   1.008   1.422  0.3290  0.3451  1.0425
11416SOL    HW235699   5.583   0.958   1.300 -1.2345 -0.7333  0.4817
11417SOL     OW35700   3.100   3.177   3.520  0.1688  0.1549  0.3758
11417SOL    HW135701   3.106   3.107   3.455 -0.2067 -0.4961  1.0262
11417SOL    HW235702   3.187   3.181   3.559 -0.3153 -1.3498  1.7308
11418SOL     OW35703   6.933   4.114   6.930  0.3887 -0.0807  0.1486
11418SOL    HW135704   6.891   4.043   6.883 -0.0876 -1.1320  2.0303
11418SOL    HW235705   6.979   4.165   6.863 -1.1662 -0.8093 -1.5261
11419SOL     OW35706   1.818   0.949   1.556  0.3377 -0.3382  0.3263
11419SOL    HW135707   1.812   0.854   1.554 -2.1943 -0.2570  0.6145
11419SOL    HW235708   1.866   0.972   1.477 -1.2197 -1.7660 -1.0997
11420SOL     OW35709   2.374   2.315   1.674 -0.3991  0.4708  0.7535
11420SOL    HW135710   2.290   2.271   1.689 -0.6694  0.1460 -1.4189
11420SOL    HW235711   2.435   2.244   1.653  0.0429  0.8402  0.7770
11421SOL     OW35712   3.128   3.647   6.146  0.5093  0.1010  0.1818
11421SOL    HW135713   3.053   3.654   6.087 -0.7554  1.3107  1.8166
11421SOL    HW235714   3.160   3.558   6.135 -1.2792 -0.4936 -0.4613
11422SOL     OW35715   6.344   4.726   2.121 -1.0361 -0.1840  0.3600
11422SOL    HW135716   6.353   4.650   2.179 -0.1419 -0.5346 -0.2167
11422SOL    HW235717   6.342   4.688   2.033  1.1946  0.5192 -0.0603
11423SOL     OW35718   6.909   1.280   4.917 -0.3384  0.2595 -0.0026
11423SOL    HW135719   6.973   1.344   4.948 -0.2596 -0.1500  0.6993
11423SOL    HW235720   6.874   1.318   4.837  1.1305  0.2599 -0.6563
11424SOL     OW35721   5.183   5.565   1.838  0.4827 -0.5245 -0.0958
11424SOL    HW135722   5.254   5.526   1.787  1.2028 -2.3153  2.0826
11424SOL    HW235723   5.222   5.582   1.924 -1.7207 -1.7872  1.2524
11425SOL     OW35724   4.789   5.540   5.707 -0.2594 -0.3957  0.0227
11425SOL    HW135725   4.719   5.605   5.701  2.1891  2.5653  1.0881
11425SOL    HW235726   4.813   5.523   5.615  0.0021  1.4201 -0.2902
11426SOL     OW35727   1.379   1.507   5.597 -1.1582 -0.0326  0.2506
11426SOL    HW135728   1.472   1.526   5.586 -1.6911  2.1429 -1.2776
11426SOL    HW235729   1.355   1.549   5.680 -0.7358 -0.9079  0.8290
11427SOL     OW35730   0.154   2.724   0.790 -0.5759  0.3101 -0.2373
11427SOL    HW135731   0.222   2.741   0.855  1.4076  0.4673 -2.2171
11427SOL    HW235732   0.109   2.646   0.822  0.2812  0.4286  1.3452
11428SOL     OW35733   2.525   4.372   1.730 -0.0702  0.0352 -0.1202
11428SOL    HW135734   2.556   4.460   1.748 -0.7272  0.2441  0.0085
11428SOL    HW235735   2.481   4.379   1.645  0.0412 -0.2093 -0.1987
11429SOL     OW35736   6.336   3.366   4.023  0.0940  0.5955 -0.4508
11429SOL    HW135737   6.355   3.293   3.965 -2.1123  1.3036 -2.2138
11429SOL    HW235738   6.422   3.399   4.050  1.1737 -0.5151 -2.3384
11430SOL     OW35739   0.301   4.190   4.729 -0.3413  0.1469  0.7055
11430SOL    HW135740   0.280   4.270   4.777  1.9894  0.5670  1.1348
11430SOL    HW235741   0.354   4.138   4.790  1.1710 -0.1090 -0.7475
11431SOL     OW35742   2.025   4.716   4.583 -0.0920  0.0519 -0.1429
11431SOL    HW135743   2.081   4.651   4.623  0.8967  0.2642 -1.1317
11431SOL    HW235744   1.942   4.710   4.631 -0.0218 -1.9029 -0.1982
11432SOL     OW35745   3.606   4.128   1.903 -0.3283 -0.5044 -0.3512
11432SOL    HW135746   3.605   4.054   1.842 -0.9226 -0.6242 -0.1946
11432SOL    HW235747   3.666   4.101   1.972 -1.3761 -1.2982  0.2681
11433SOL     OW35748   4.269   1.282   2.230  0.0718  0.5920 -0.4561
11433SOL    HW135749   4.269   1.304   2.137  0.2794 -0.0925 -0.6213
11433SOL    HW235750   4.245   1.364   2.274 -0.6534  0.7690 -1.1489
11434SOL     OW35751   3.272   6.243   3.370 -0.2105  0.1018  0.1962
11434SOL    HW135752   3.341   6.282   3.316 -0.8401  2.3988  0.9022
11434SOL    HW235753   3.318   6.197   3.440  0.5889 -0.8688 -0.9346
11435SOL     OW35754   6.736   6.878   4.338  0.3509  0.2694  0.1930
11435SOL    HW135755   6.661   6.934   4.319 -1.1803 -1.4715  0.7261
11435SOL    HW235756   6.716   6.796   4.293  2.3950  0.0442 -0.3729
11436SOL     OW35757   2.892   6.778   7.120 -0.3984  0.2203  0.0286
11436SOL    HW135758   2.935   6.781   7.034 -0.3099 -0.3929  0.0434
11436SOL    HW235759   2.931   6.701   7.163 -1.1870 -0.0819  0.2180
11437SOL     OW35760   6.841   4.713   2.742 -0.0122  0.0458  0.3549
11437SOL    HW135761   6.883   4.634   2.778 -0.9870 -0.6552 -0.0060
11437SOL    HW235762   6.854   4.707   2.648 -2.0194 -0.8768  0.0942
11438SOL     OW35763   6.215   2.318   4.206 -0.4882  0.1883 -0.3698
11438SOL    HW135764   6.156   2.347   4.136  0.1093  0.5934 -0.7179
11438SOL    HW235765   6.191   2.371   4.282 -0.7346  0.1703 -0.4332
11439SOL     OW35766   5.321   6.923   2.088  0.4341  0.4659 -0.1366
11439SOL    HW135767   5.386   6.888   2.027  0.5916  0.6777 -0.0933
11439SOL    HW235768   5.243   6.871   2.072  0.7953 -0.2011  0.2401
11440SOL     OW35769   1.684   2.568   3.633  0.1321 -0.1742  0.7777
11440SOL    HW135770   1.630   2.521   3.697  1.3196 -1.4160  0.9137
11440SOL    HW235771   1.736   2.500   3.591 -0.2257  0.6808 -1.1630
11441SOL     OW35772   6.066   3.427   2.986  0.0670 -0.3963  0.0797
11441SOL    HW135773   5.997   3.477   3.029 -1.4207 -1.3756 -1.0731
11441SOL    HW235774   6.099   3.368   3.053 -2.1792 -1.8617 -0.0085
11442SOL     OW35775   2.137   6.738   4.513 -0.0214 -0.5211  0.2451
11442SOL    HW135776   2.141   6.818   4.459  0.2070 -0.5230  0.2586
11442SOL    HW235777   2.059   6.750   4.567 -0.3985 -0.6317 -0.2641
11443SOL     OW35778   4.923   1.029   7.037 -0.0717 -0.1178  0.2623
11443SOL    HW135779   4.879   0.946   7.020 -0.3069 -0.2486  1.3872
11443SOL    HW235780   4.963   1.053   6.954 -0.2654 -1.2024 -0.1602
11444SOL     OW35781   2.006   5.359   0.934  0.0511  0.0373 -0.3300
11444SOL    HW135782   2.024   5.453   0.943 -0.0062  0.1302 -1.1521
11444SOL    HW235783   1.940   5.354   0.865 -0.2758 -0.5807  0.0194
11445SOL     OW35784   4.581   5.489   6.997  0.2367 -0.1950 -0.5590
11445SOL    HW135785   4.506   5.432   6.979 -0.6033  0.4502  0.7559
11445SOL    HW235786   4.576   5.507   7.090  2.2774 -0.4415 -0.3497
11446SOL     OW35787   1.966   4.043   4.936 -0.5628 -0.0678 -0.5177
11446SOL    HW135788   1.963   4.080   4.848  0.0250  0.0364 -0.4982
11446SOL    HW235789   1.963   3.949   4.923  0.1055 -0.0742 -0.6900
11447SOL     OW35790   3.033   4.343   5.900 -0.5359 -0.3708 -0.1815
11447SOL    HW135791   2.968   4.411   5.916 -1.8794 -1.3918 -1.0432
11447SOL    HW235792   2.984   4.261   5.907  0.8405 -1.2170 -0.0693
11448SOL     OW35793   5.182   3.363   2.892  0.2338 -0.0593  0.3055
11448SOL    HW135794   5.166   3.336   2.801 -0.7721  0.7549  0.2222
11448SOL    HW235795   5.095   3.370   2.931  0.5718  0.9702  0.9226
11449SOL     OW35796   2.593   4.629   3.504  0.5412 -0.3010  0.5334
11449SOL    HW135797   2.632   4.612   3.418  1.7750 -0.4286  1.0920
11449SOL    HW235798   2.509   4.583   3.501  1.0272 -1.1980 -0.2415
11450SOL     OW35799   6.641   3.210   3.663  0.3509 -0.8479 -0.1484
11450SOL    HW135800   6.699   3.261   3.720 -0.4564  0.9777 -0.8627
11450SOL    HW235801   6.695   3.186   3.588  0.0493  1.7385 -1.3142
11451SOL     OW35802   2.884   6.875   2.613  0.0955  0.2393 -0.3082
11451SOL    HW135803   2.909   6.787   2.584 -0.3920  0.1738 -0.5399
11451SOL    HW235804   2.902   6.931   2.538 -0.7119  0.1456 -0.5845
11452SOL     OW35805   6.360   0.948   5.396  0.1571 -0.1388 -0.1263
11452SOL    HW135806   6.436   0.897   5.425  0.4466  0.1927 -0.2963
11452SOL    HW235807   6.394   1.035   5.380 -0.5771  0.4503  1.3841
11453SOL     OW35808   3.232   3.994   2.532 -0.3549  0.2541  0.0826
11453SOL    HW135809   3.266   4.082   2.517  0.3168  0.1153  0.7446
11453SOL    HW235810   3.172   4.003   2.606  0.7608 -0.0677  1.0551
11454SOL     OW35811   5.344   5.162   6.024 -0.4396 -0.5070  0.2826
11454SOL    HW135812   5.363   5.237   6.081 -0.8311 -0.2979  0.1413
11454SOL    HW235813   5.361   5.195   5.936  0.1473 -0.8237  0.2729
11455SOL     OW35814   3.282   4.353   1.339  0.3500  0.0070 -0.3961
11455SOL    HW135815   3.251   4.420   1.399 -0.5412 -0.3600 -0.4345
11455SOL    HW235816   3.333   4.401   1.274  1.1805  0.4360  0.5274
11456SOL     OW35817   6.556   5.618   5.758  0.2709  0.7934  0.0368
11456SOL    HW135818   6.574   5.536   5.803  0.6900  1.7467  1.6766
11456SOL    HW235819   6.470   5.645   5.790  0.7169  1.6476  0.5367
11457SOL     OW35820   1.566   2.063   0.182  0.1661  0.1508  0.0738
11457SOL    HW135821   1.526   2.112   0.253  0.5902  0.1146  0.3443
11457SOL    HW235822   1.497   2.053   0.117 -0.3020 -0.0235  0.5876
11458SOL     OW35823   1.883   6.790   1.451 -0.4470 -0.2186  0.3008
11458SOL    HW135824   1.925   6.808   1.535 -1.9077  0.9954  0.8179
11458SOL    HW235825   1.911   6.862   1.395 -1.2808  0.2385  0.4563
11459SOL     OW35826   0.351   5.916   2.925 -0.0790  0.1527  0.0936
11459SOL    HW135827   0.300   5.879   2.997 -0.1270  0.9019  0.4578
11459SOL    HW235828   0.303   5.996   2.902  1.2881  1.2486  0.9069
11460SOL     OW35829   2.725   6.670   0.721  0.5834  0.0412  0.5627
11460SOL    HW135830   2.784   6.598   0.700  0.6954  0.5211 -0.8530
11460SOL    HW235831   2.648   6.628   0.760  1.3723 -0.6726  1.4024
11461SOL     OW35832   1.477   6.758   3.292  0.2956  0.4388  0.3744
11461SOL    HW135833   1.511   6.674   3.260 -3.2283 -0.4725 -1.4872
11461SOL    HW235834   1.452   6.741   3.383  1.2070  0.0184  0.5581
11462SOL     OW35835   1.004   2.913   4.646 -0.0181  0.3211 -0.0401
11462SOL    HW135836   0.975   2.822   4.638 -2.7300  1.0553  0.2601
11462SOL    HW235837   1.099   2.908   4.658 -0.0243 -2.4107 -0.5878
11463SOL     OW35838   5.472   2.788   5.172 -0.4102 -0.6029  0.3525
11463SOL    HW135839   5.516   2.842   5.237  0.1992  0.0614 -0.5728
11463SOL    HW235840   5.454   2.847   5.099 -2.2407 -1.0257  0.4087
11464SOL     OW35841   3.869   5.994   6.625  0.0252 -0.2669 -0.0097
11464SOL    HW135842   3.901   5.909   6.655  1.5272  0.2249 -0.0939
11464SOL    HW235843   3.851   6.043   6.705 -0.3099 -0.4821  0.0450
11465SOL     OW35844   4.225   4.233   6.445  0.1496  0.4837  0.7089
11465SOL    HW135845   4.150   4.211   6.501 -1.7578  2.3420 -0.9338
11465SOL    HW235846   4.202   4.195   6.360  1.4269  0.4856  0.3540
11466SOL     OW35847   2.895   6.150   3.945  0.2023  0.2570  0.4042
11466SOL    HW135848   2.976   6.149   3.894 -0.6315  1.2467 -0.9972
11466SOL    HW235849   2.855   6.064   3.927 -0.7763  1.1123 -1.8506
11467SOL     OW35850   4.850   6.485   3.994 -0.3366 -0.1843 -0.0840
11467SOL    HW135851   4.827   6.504   3.903  0.9674 -0.8459 -0.5902
11467SOL    HW235852   4.882   6.394   3.991  0.7573  0.1483  0.8105
11468SOL     OW35853   2.653   2.255   3.165 -0.1581  0.1796 -0.2525
11468SOL    HW135854   2.736   2.300   3.151 -1.6336  2.9576 -0.8490
11468SOL    HW235855   2.610   2.256   3.079 -1.1516 -0.4521  0.2173
11469SOL     OW35856   0.699   6.048   5.853 -0.4146 -0.4982 -0.3752
11469SOL    HW135857   0.703   6.013   5.943  1.3915 -0.4952 -0.4295
11469SOL    HW235858   0.654   6.132   5.862  1.8380  0.6581  0.9542
11470SOL     OW35859   0.856   6.627   4.766  0.0689  0.1854  0.3474
11470SOL    HW135860   0.846   6.667   4.852 -1.0940 -0.3781  0.4865
11470SOL    HW235861   0.935   6.574   4.773  1.0429  1.5802  0.4800
11471SOL     OW35862   0.291   5.832   4.359  0.5571 -0.4862 -0.3935
11471SOL    HW135863   0.290   5.829   4.455  1.0609  0.1800 -0.3612
11471SOL    HW235864   0.327   5.748   4.332  2.5891  0.1761  0.0755
11472SOL     OW35865   2.787   1.749   1.008  0.1236 -0.8811  0.1667
11472SOL    HW135866   2.708   1.698   0.990 -1.1269  0.4523  1.5782
11472SOL    HW235867   2.805   1.794   0.925  0.2957 -2.2887 -0.6004
11473SOL     OW35868   4.206   5.651   3.716  0.3657 -0.5330 -0.4308
11473SOL    HW135869   4.249   5.626   3.634 -1.6527 -2.1268 -1.0818
11473SOL    HW235870   4.167   5.737   3.696  0.8335 -0.3865 -0.7524
11474SOL     OW35871   5.558   3.205   4.745 -0.0351  0.1465 -0.3455
11474SOL    HW135872   5.517   3.281   4.786  1.6727  0.5429  0.7110
11474SOL    HW235873   5.624   3.243   4.686  0.2548 -0.5059 -0.4432
11475SOL     OW35874   5.776   2.141   0.144 -0.4574 -0.0340  0.2736
11475SOL    HW135875   5.833   2.191   0.203 -0.6176 -0.6385  0.9577
11475SOL    HW235876   5.828   2.064   0.120 -0.1066  0.5802 -0.9958
11476SOL     OW35877   3.122   3.644   6.424 -0.3552 -0.0715 -0.0330
11476SOL    HW135878   3.104   3.658   6.330 -2.9939  1.1700  0.5603
11476SOL    HW235879   3.062   3.575   6.450  0.3061 -0.3462  0.8066
11477SOL     OW35880   4.007   0.183   6.995  0.0481 -0.4716  0.0553
11477SOL    HW135881   4.002   0.157   6.903  0.9540  1.2938 -0.5271
11477SOL    HW235882   3.915   0.191   7.022 -0.2343 -0.2484 -0.9217
11478SOL     OW35883   2.975   1.416   5.587  0.1014  0.1868 -0.1166
11478SOL    HW135884   2.944   1.423   5.677  3.2411 -0.6974  1.1887
11478SOL    HW235885   3.008   1.326   5.580 -0.1266  0.2122 -2.1886
11479SOL     OW35886   4.522   5.395   5.499  0.2317  0.0593  0.3664
11479SOL    HW135887   4.495   5.482   5.527 -0.2700 -0.5144  1.7519
11479SOL    HW235888   4.616   5.404   5.479 -0.0860  1.1729 -0.7250
11480SOL     OW35889   2.882   4.372   3.308 -0.1828  0.2708  0.3121
11480SOL    HW135890   2.789   4.358   3.326 -0.3337  2.1752  1.2060
11480SOL    HW235891   2.883   4.433   3.234  0.3463  0.5886  0.5734
11481SOL     OW35892   6.620   5.874   6.731 -0.6855 -0.0208  0.2936
11481SOL    HW135893   6.618   5.969   6.732  0.4367  0.0133  1.2283
11481SOL    HW235894   6.657   5.850   6.816  0.8336 -1.2224 -0.6556
11482SOL     OW35895   4.632   0.556   3.246  0.4451 -0.4942 -0.0561
11482SOL    HW135896   4.669   0.548   3.334  2.5037 -0.2384 -0.8211
11482SOL    HW235897   4.548   0.599   3.258  1.1032  0.4015  1.7256
11483SOL     OW35898   5.286   3.499   5.449  0.0712 -0.1048  0.7321
11483SOL    HW135899   5.323   3.575   5.404  0.5523 -0.1953  0.9678
11483SOL    HW235900   5.361   3.441   5.464  0.0906  0.2684  2.3549
11484SOL     OW35901   5.897   0.300   2.930 -0.0533  0.1749 -0.2004
11484SOL    HW135902   5.917   0.285   3.022 -2.7879  2.1732  0.8649
11484SOL    HW235903   5.851   0.384   2.929  0.5122  0.5802 -3.5162
11485SOL     OW35904   5.444   0.982   1.589  0.1561 -0.4130  0.2156
11485SOL    HW135905   5.467   1.011   1.677  2.6160  1.5306 -0.9418
11485SOL    HW235906   5.437   0.887   1.596 -1.1854 -0.2223  2.7479
11486SOL     OW35907   5.367   6.620   2.586 -0.1297 -0.6772  0.0916
11486SOL    HW135908   5.343   6.649   2.498  2.0443  0.3536 -0.2463
11486SOL    HW235909   5.320   6.538   2.599 -0.3355 -0.9536 -2.1183
11487SOL     OW35910   5.617   0.452   5.067  0.3389  0.5939  0.0428
11487SOL    HW135911   5.546   0.389   5.054  1.7409 -1.7332  2.5991
11487SOL    HW235912   5.694   0.409   5.028  0.7241  2.3309 -1.2118
11488SOL     OW35913   5.076   5.552   1.000  0.8627  0.5151  0.2650
11488SOL    HW135914   5.074   5.559   0.904  1.3669  0.2834  0.2361
11488SOL    HW235915   4.984   5.555   1.026  0.6369 -0.7855 -0.3245
11489SOL     OW35916   0.770   0.789   0.761 -0.4536 -0.5650  0.1464
11489SOL    HW135917   0.714   0.859   0.728  0.7680  0.3130 -0.1037
11489SOL    HW235918   0.851   0.833   0.787 -0.2201 -1.6748  1.3982
11490SOL     OW35919   0.273   4.238   0.687 -0.2475 -0.4130  0.1464
11490SOL    HW135920   0.245   4.238   0.595  1.0096 -1.1731 -0.2546
11490SOL    HW235921   0.258   4.328   0.717 -0.7044 -0.1657 -0.7879
11491SOL     OW35922   1.703   5.244   5.414 -0.1084  0.2825 -0.6487
11491SOL    HW135923   1.629   5.207   5.366 -1.7241  1.1535  1.0244
11491SOL    HW235924   1.705   5.336   5.389 -0.4723  0.5641  0.3157
11492SOL     OW35925   5.135   4.451   6.187  0.4088  0.7149 -0.4033
11492SOL    HW135926   5.164   4.473   6.098 -0.0573 -0.0458 -0.7551
11492SOL    HW235927   5.137   4.355   6.190  0.4347  0.7333  0.4137
11493SOL     OW35928   2.192   3.333   2.934  0.2684 -0.1803  0.0883
11493SOL    HW135929   2.268   3.381   2.967 -0.3619 -0.0074  1.3727
11493SOL    HW235930   2.127   3.400   2.916 -0.4709 -0.4611  1.4994
11494SOL     OW35931   4.180   4.647   2.192  0.0616  0.5666 -0.3023
11494SOL    HW135932   4.149   4.563   2.159 -0.5214  1.3643 -1.8805
11494SOL    HW235933   4.273   4.634   2.208 -0.0321 -0.3752 -0.4790
11495SOL     OW35934   2.757   3.818   2.868  0.3393 -0.1405 -0.4357
11495SOL    HW135935   2.672   3.860   2.876  0.6923  1.3394 -3.0164
11495SOL    HW235936   2.814   3.867   2.928 -0.2806 -0.1021  0.1291
11496SOL     OW35937   3.719   2.231   0.779  0.7486  0.0425  0.3329
11496SOL    HW135938   3.668   2.200   0.854 -0.0093 -0.6853 -0.4641
11496SOL    HW235939   3.677   2.313   0.754 -1.5819 -1.6533 -1.7437
11497SOL     OW35940   0.130   0.283   1.114  0.1435 -0.3648 -0.3264
11497SOL    HW135941   0.207   0.245   1.072  0.1055 -0.4530 -0.3171
11497SOL    HW235942   0.068   0.298   1.043  0.0550 -0.5727 -0.2950
11498SOL     OW35943   3.661   4.565   4.147  0.6831 -0.2330 -0.0315
11498SOL    HW135944   3.635   4.560   4.239  1.6503 -0.4243  0.2419
11498SOL    HW235945   3.606   4.500   4.103 -2.6223  2.4379 -0.3330
11499SOL     OW35946   3.995   4.432   6.624  0.0387  0.0440 -0.1689
11499SOL    HW135947   3.933   4.476   6.565 -1.4562 -1.8413 -0.1090
11499SOL    HW235948   4.063   4.497   6.641  0.2387  0.8756 -3.4807
11500SOL     OW35949   0.229   1.520   2.432 -0.3457  0.5731  0.2830
11500SOL    HW135950   0.204   1.546   2.521 -0.2698  1.5945  0.0151
11500SOL    HW235951   0.150   1.482   2.395 -0.1951 -0.5043  1.0068
11501SOL     OW35952   2.923   5.425   0.507  0.0180  0.6651  0.6073
11501SOL    HW135953   2.952   5.434   0.598  0.6794  1.5199  0.3249
11501SOL    HW235954   3.004   5.422   0.456 -0.2682 -1.9157  0.1887
11502SOL     OW35955   2.234   4.560   3.787  0.2190  0.0016  0.2562
11502SOL    HW135956   2.230   4.471   3.751 -0.7526  0.1179  0.0410
11502SOL    HW235957   2.246   4.548   3.881  0.2848 -0.3529  0.2043
11503SOL     OW35958   0.845   2.511   0.034  0.2095  0.2575  0.7932
11503SOL    HW135959   0.806   2.425   0.044 -0.5244  0.6430  1.2770
11503SOL    HW235960   0.837   2.530  -0.060  0.5987 -0.2979  0.6424
11504SOL     OW35961   6.191   6.053   2.336 -0.3973  0.0806 -0.0615
11504SOL    HW135962   6.169   6.053   2.243  1.4051 -1.7207 -0.5438
11504SOL    HW235963   6.252   6.127   2.346 -0.5393  0.2351 -0.3051
11505SOL     OW35964   4.754   3.930   3.531  0.0462  0.3318  0.0384
11505SOL    HW135965   4.830   3.988   3.536  1.4196 -1.4223  0.6745
11505SOL    HW235966   4.690   3.969   3.591 -0.3120  2.7771 -1.7970
11506SOL     OW35967   3.590   6.392   0.508 -0.1666 -0.4184  0.0968
11506SOL    HW135968   3.572   6.341   0.429 -1.8668 -0.1471  0.2620
11506SOL    HW235969   3.554   6.339   0.579  1.2965 -0.6324  0.7026
11507SOL     OW35970   5.754   3.523   1.528  0.0071 -0.7010 -0.5313
11507SOL    HW135971   5.827   3.546   1.471 -0.6607 -0.2311 -1.2144
11507SOL    HW235972   5.784   3.446   1.575  1.2836 -0.0097 -0.1539
11508SOL     OW35973   6.188   3.312   0.675 -0.0044 -0.0023 -0.1513
11508SOL    HW135974   6.240   3.315   0.595 -1.2562  1.8891 -0.9643
11508SOL    HW235975   6.122   3.381   0.663 -1.8472 -1.3971  1.3939
11509SOL     OW35976   2.532   0.863   5.055 -0.4512 -0.2277  0.2855
11509SOL    HW135977   2.611   0.844   5.106 -1.5524 -0.2817  2.0602
11509SOL    HW235978   2.529   0.958   5.051  0.3905 -0.2308 -0.9662
11510SOL     OW35979   5.561   4.112   6.042 -0.3283 -0.3660 -0.3406
11510SOL    HW135980   5.637   4.133   5.988 -1.2491 -0.8091 -1.8470
11510SOL    HW235981   5.583   4.029   6.083 -0.1085 -0.6307 -0.9901
11511SOL     OW35982   0.307   6.092   0.780  0.6085  0.2220 -0.1832
11511SOL    HW135983   0.252   6.026   0.822  2.3942 -0.4761  1.1976
11511SOL    HW235984   0.355   6.044   0.712 -1.2508  1.0638 -2.2027
11512SOL     OW35985   4.295   1.034   6.476  0.2638  0.1986 -0.1186
11512SOL    HW135986   4.228   1.016   6.410 -1.4977 -0.1795  1.6583
11512SOL    HW235987   4.300   0.953   6.527  1.9914  0.2832 -0.0942
11513SOL     OW35988   6.995   2.888   3.331 -0.2678  0.4867  0.0561
11513SOL    HW135989   7.048   2.955   3.288 -1.0460  1.7698  1.0394
11513SOL    HW235990   7.017   2.895   3.424 -1.4771  0.4387  0.3636
11514SOL     OW35991   1.623   3.060   0.928 -0.1702  0.5385 -0.2549
11514SOL    HW135992   1.623   3.003   1.005  0.0079  1.1436  0.1917
11514SOL    HW235993   1.691   3.023   0.871 -0.9013 -0.4362 -0.5251
11515SOL     OW35994   2.957   3.720   3.182 -0.4894 -0.4444  0.4266
11515SOL    HW135995   3.010   3.641   3.166  0.5491 -0.0142  1.6036
11515SOL    HW235996   2.867   3.689   3.181 -0.0499 -2.0353  2.6612
11516SOL     OW35997   5.923   5.740   1.720 -0.1693  0.8544  0.4691
11516SOL    HW135998   5.902   5.824   1.759  0.2419  2.1138 -1.8350
11516SOL    HW235999   6.002   5.711   1.766 -1.0607  1.0286  2.1926
11517SOL     OW36000   3.488   0.128   3.313 -0.2974  0.6060  0.2278
11517SOL    HW136001   3.561   0.134   3.251  0.0893  2.4103  0.7907
11517SOL    HW236002   3.415   0.169   3.268 -0.3087  0.9341  0.5356
11518SOL     OW36003   5.940   0.651   4.959 -0.0331  0.4084  0.4785
11518SOL    HW136004   5.970   0.740   4.976  1.4173  0.4403 -1.8570
11518SOL    HW236005   5.873   0.661   4.891  0.1962 -0.2890  0.1430
11519SOL     OW36006   3.903   5.046   1.296 -0.7067  0.0324 -0.2809
11519SOL    HW136007   3.835   5.084   1.352 -0.4352  0.7687 -0.4366
11519SOL    HW236008   3.858   4.978   1.247 -1.7983  1.6990 -1.6988
11520SOL     OW36009   6.419   2.443   5.184 -0.3005 -0.1042 -0.0623
11520SOL    HW136010   6.334   2.483   5.165 -0.8190  0.0737  2.3911
11520SOL    HW236011   6.475   2.517   5.206  0.0372 -0.3641 -0.0583
11521SOL     OW36012   3.343   2.906   6.918  0.5974  0.5941  0.0701
11521SOL    HW136013   3.283   2.981   6.921 -1.3558 -0.8884  0.1021
11521SOL    HW236014   3.368   2.899   6.826 -0.1790  0.5644 -0.1445
11522SOL     OW36015   4.760   5.467   5.400 -0.3470 -1.3915  0.5804
11522SOL    HW136016   4.842   5.442   5.356  0.4393 -0.4349  1.4664
11522SOL    HW236017   4.751   5.560   5.382 -2.1520 -1.8005 -0.9217
11523SOL     OW36018   3.740   6.874   5.921  0.2157 -0.1315  0.2793
11523SOL    HW136019   3.699   6.904   6.003 -0.2198  0.6603 -0.2101
11523SOL    HW236020   3.704   6.787   5.906  2.0380 -1.2959  2.1088
11524SOL     OW36021   3.548   0.141   0.845  0.2413  0.1154 -0.1338
11524SOL    HW136022   3.624   0.188   0.811  0.5864 -0.8979 -0.7977
11524SOL    HW236023   3.485   0.210   0.866  1.8200  1.1111  1.7402
11525SOL     OW36024   6.054   3.786   4.068 -0.2620 -0.1271 -0.1258
11525SOL    HW136025   5.969   3.775   4.110 -0.5175  0.2859 -0.5299
11525SOL    HW236026   6.071   3.701   4.026  0.1621 -0.6678  1.0938
11526SOL     OW36027   6.617   6.744   2.002 -0.1699  0.2193  0.0231
11526SOL    HW136028   6.579   6.747   2.090 -0.1590 -0.7558  0.0718
11526SOL    HW236029   6.572   6.672   1.959  0.6012 -0.0243 -0.3985
11527SOL     OW36030   0.756   1.965   0.593  0.0277 -0.0156  0.3404
11527SOL    HW136031   0.739   1.871   0.595  0.0305 -0.0146  1.5529
11527SOL    HW236032   0.670   2.005   0.584  0.1435 -0.1316 -1.7759
11528SOL     OW36033   0.631   3.150   2.523  0.5134  0.3229  0.3524
11528SOL    HW136034   0.668   3.077   2.473 -2.6469 -2.0738  1.1987
11528SOL    HW236035   0.615   3.218   2.458 -0.7024 -1.5502 -1.4468
11529SOL     OW36036   6.435   5.004   4.631  0.5434  0.3156  0.2133
11529SOL    HW136037   6.363   4.990   4.569  0.8418 -1.8576  0.2640
11529SOL    HW236038   6.396   5.051   4.704 -0.2336  1.3152 -0.8150
11530SOL     OW36039   3.533   2.902   1.339 -0.1924 -0.4293  0.1107
11530SOL    HW136040   3.440   2.881   1.334 -0.1653 -0.4121 -0.6955
11530SOL    HW236041   3.544   2.976   1.278 -0.2711  1.9548  2.7707
11531SOL     OW36042   0.443   1.923   3.064  0.1943 -0.3687  0.0937
11531SOL    HW136043   0.426   1.847   3.120  0.0271  1.1349  2.1923
11531SOL    HW236044   0.538   1.934   3.067  0.1192  0.1775  0.7735
11532SOL     OW36045   6.559   6.471   5.945  0.0811  0.2527 -0.3386
11532SOL    HW136046   6.618   6.466   6.020 -1.8888 -0.3968  1.2591
11532SOL    HW236047   6.595   6.409   5.882  0.7579 -0.5919  0.8382
11533SOL     OW36048   4.109   5.148   5.548 -0.3928  0.3381  0.4533
11533SOL    HW136049   4.081   5.132   5.458 -2.3099 -1.0047  1.2232
11533SOL    HW236050   4.069   5.232   5.571  0.3001  0.8028  0.0002
11534SOL     OW36051   1.828   4.288   4.294  0.0747 -0.1732  0.6732
11534SOL    HW136052   1.828   4.321   4.384  2.2375 -0.7542  0.9309
11534SOL    HW236053   1.918   4.300   4.264 -0.7021  0.3805 -1.5821
11535SOL     OW36054   6.152   3.702   5.499 -0.2006 -0.1619  0.5797
11535SOL    HW136055   6.128   3.651   5.577 -0.0178 -0.8604  0.1864
11535SOL    HW236056   6.156   3.637   5.428  0.6386  0.3016  0.1919
11536SOL     OW36057   3.004   5.131   3.174  0.1126  0.0733  0.6661
11536SOL    HW136058   3.068   5.152   3.242  0.5746 -1.4027  0.7068
11536SOL    HW236059   3.047   5.157   3.092 -0.3326  1.5868  0.8722
11537SOL     OW36060   6.241   4.064   4.940  0.2096 -0.1651  0.5363
11537SOL    HW136061   6.286   4.060   4.855 -0.9491  1.7256 -0.2235
11537SOL    HW236062   6.187   3.985   4.942  1.6650 -1.2170  0.4050
11538SOL     OW36063   4.337   5.211   3.633 -0.0291  0.1115  0.0708
11538SOL    HW136064   4.270   5.157   3.677 -1.2200  1.6219  0.1858
11538SOL    HW236065   4.384   5.253   3.705  0.5410 -0.3374 -0.0333
11539SOL     OW36066   0.548   2.795   0.542  0.4081 -0.4472 -0.7502
11539SOL    HW136067   0.553   2.731   0.613  1.3041  0.9229  0.5072
11539SOL    HW236068   0.456   2.821   0.539  0.4997  0.1912  0.6545
11540SOL     OW36069   2.218   2.020   5.765  0.5171  0.1380  0.2679
11540SOL    HW136070   2.259   1.997   5.682  1.7075  0.8944  0.6290
11540SOL    HW236071   2.124   2.016   5.747  0.7457 -0.4119 -0.9087
11541SOL     OW36072   2.171   1.941   1.660  0.5827 -0.2641  0.0136
11541SOL    HW136073   2.190   2.000   1.587  1.7106 -0.5097  0.0980
11541SOL    HW236074   2.187   1.854   1.626  0.7601 -0.4063  0.4534
11542SOL     OW36075   5.063   3.538   5.061 -0.1352 -0.4635 -0.0566
11542SOL    HW136076   5.048   3.632   5.054 -2.0525 -0.7296  0.0269
11542SOL    HW236077   5.158   3.528   5.052  0.0521  1.4254 -0.5454
11543SOL     OW36078   4.221   6.700   2.361  0.6601 -1.0555  0.0970
11543SOL    HW136079   4.263   6.621   2.396 -1.1994 -2.5292 -0.8607
11543SOL    HW236080   4.139   6.670   2.324  0.2057  1.2485 -0.9590
11544SOL     OW36081   0.999   5.480   0.320  0.8031 -0.4868  0.1121
11544SOL    HW136082   1.012   5.567   0.282  1.1257 -0.4978  0.1974
11544SOL    HW236083   0.977   5.425   0.245  0.0664 -0.2220  0.1302
11545SOL     OW36084   1.789   3.069   6.511  0.5550 -0.4412 -0.0756
11545SOL    HW136085   1.703   3.027   6.499  1.0695 -1.9285  1.2510
11545SOL    HW236086   1.770   3.145   6.566 -0.1261  0.1166 -1.0496
11546SOL     OW36087   1.886   1.472   0.489  0.5133 -0.3350 -0.4910
11546SOL    HW136088   1.833   1.495   0.413 -0.5098  0.8843  0.5564
11546SOL    HW236089   1.842   1.513   0.563  2.7203  0.4207  0.4962
11547SOL     OW36090   2.821   1.106   1.341 -0.0199  0.0410 -0.3150
11547SOL    HW136091   2.760   1.168   1.301  0.4655  1.4408  0.9950
11547SOL    HW236092   2.828   1.135   1.432 -0.8382 -2.8173  0.7436
11548SOL     OW36093   4.774   4.908   4.198 -0.1494 -0.1521 -0.6462
11548SOL    HW136094   4.744   4.845   4.133  0.6055  0.1719 -1.3310
11548SOL    HW236095   4.783   4.857   4.279  0.9886 -1.0668 -1.3205
11549SOL     OW36096   4.365   3.884   2.556  0.1127 -0.1812 -0.6743
11549SOL    HW136097   4.295   3.922   2.609  1.8117  1.4137  0.5725
11549SOL    HW236098   4.408   3.822   2.614  1.4380  0.9249 -0.4089
11550SOL     OW36099   2.332   2.201   4.746  0.1060  0.1164  0.1035
11550SOL    HW136100   2.334   2.138   4.818 -0.1321  0.6323  0.5710
11550SOL    HW236101   2.323   2.286   4.789  1.8169  0.6220 -0.4330
11551SOL     OW36102   6.193   1.941   3.119 -0.2835 -0.1405  0.0180
11551SOL    HW136103   6.119   1.890   3.152 -1.1058  0.2952 -1.1101
11551SOL    HW236104   6.161   2.032   3.116  0.2352  0.0347 -0.6167
11552SOL     OW36105   4.759   6.197   2.966  0.0340  0.3513 -0.1518
11552SOL    HW136106   4.806   6.225   2.887  0.5655 -1.1143 -0.3906
11552SOL    HW236107   4.787   6.106   2.979 -1.6642 -0.1073  0.5232
11553SOL     OW36108   1.218   6.304   1.970 -0.5911 -0.4112 -0.7462
11553SOL    HW136109   1.193   6.362   2.043  0.9792 -1.1025  0.4102
11553SOL    HW236110   1.243   6.364   1.900 -2.2289  0.2719 -0.7936
11554SOL     OW36111   6.183   2.026   0.030  0.3956  0.1669 -0.0078
11554SOL    HW136112   6.101   1.982   0.052  0.1015  1.7270  2.5253
11554SOL    HW236113   6.251   1.972   0.071  0.3664  0.1868  0.0688
11555SOL     OW36114   4.291   2.622   5.943  0.5064 -0.1548  0.0382
11555SOL    HW136115   4.303   2.530   5.920  1.2786  0.1986 -1.0898
11555SOL    HW236116   4.380   2.656   5.954  0.2061  0.0975  2.0763
11556SOL     OW36117   0.316   4.189   6.140 -0.1159  0.1733  0.3432
11556SOL    HW136118   0.382   4.185   6.209 -0.7203  1.0264  0.9917
11556SOL    HW236119   0.237   4.218   6.184 -1.0667 -1.2530 -0.3350
11557SOL     OW36120   0.321   1.932   2.368 -0.3738  0.2459  0.2380
11557SOL    HW136121   0.234   1.892   2.369 -1.0567  1.6905  0.6909
11557SOL    HW236122   0.381   1.857   2.372 -1.5432 -0.8414 -1.4202
11558SOL     OW36123   2.102   5.978   4.340 -0.1998 -0.1860  0.1207
11558SOL    HW136124   2.186   5.955   4.300  0.1135  0.7818  0.1906
11558SOL    HW236125   2.037   5.928   4.291  0.3326 -0.2493 -0.5299
11559SOL     OW36126   5.505   2.808   6.955 -0.1926 -0.6872 -0.1387
11559SOL    HW136127   5.452   2.786   6.879 -0.3116  0.8471 -0.5407
11559SOL    HW236128   5.594   2.814   6.922 -0.2417 -0.0365 -0.1718
11560SOL     OW36129   1.515   2.143   2.299 -0.0999  0.2995 -0.0627
11560SOL    HW136130   1.553   2.170   2.383  0.5000  0.1175 -0.2701
11560SOL    HW236131   1.524   2.048   2.298 -0.6935  0.2379 -0.0596
11561SOL     OW36132   1.017   6.372   3.199  0.9054 -0.7275 -0.2417
11561SOL    HW136133   0.995   6.337   3.285 -0.6792 -1.7535 -0.9963
11561SOL    HW236134   1.033   6.465   3.214 -2.3386 -0.2078  0.7801
11562SOL     OW36135   0.694   2.753   3.748  0.2959  0.1109 -0.3748
11562SOL    HW136136   0.743   2.799   3.817  1.1592 -1.8955  0.4283
11562SOL    HW236137   0.745   2.675   3.731 -1.3962 -0.8468 -1.2782
11563SOL     OW36138   2.142   5.592   6.114 -0.5226 -0.0708  0.1888
11563SOL    HW136139   2.222   5.564   6.071 -1.4029  0.3021 -1.8011
11563SOL    HW236140   2.076   5.528   6.087 -0.4760 -1.9253  3.8693
11564SOL     OW36141   5.409   4.604   6.238  0.4742  0.1791  0.5586
11564SOL    HW136142   5.339   4.573   6.295 -0.1599  0.8396  0.1476
11564SOL    HW236143   5.377   4.686   6.202  0.6733 -0.4320 -1.0991
11565SOL     OW36144   6.462   1.551   4.654  0.4366  0.4363 -0.4135
11565SOL    HW136145   6.490   1.545   4.563  3.2305  2.8391  0.1581
11565SOL    HW236146   6.518   1.489   4.700 -0.7245 -0.5067 -0.2076
11566SOL     OW36147   7.098   6.151   1.528  0.4364 -0.2535  0.0664
11566SOL    HW136148   7.134   6.062   1.533  3.0428  0.6782 -0.2491
11566SOL    HW236149   7.054   6.154   1.443  1.1702 -0.9936 -0.3649
11567SOL     OW36150   2.488   1.412   3.116 -0.3037  0.9935 -0.3263
11567SOL    HW136151   2.507   1.381   3.027 -0.3662  1.2010 -0.4135
11567SOL    HW236152   2.409   1.365   3.141  0.1141  0.3908 -0.0986
11568SOL     OW36153   1.917   4.510   0.048 -0.6269  0.0602 -0.5107
11568SOL    HW136154   1.908   4.571  -0.025 -0.1477 -0.7446 -1.2574
11568SOL    HW236155   1.847   4.445   0.034  1.9699 -2.5496 -2.7317
11569SOL     OW36156   0.169   5.091   4.102 -0.3767 -0.0613  0.4502
11569SOL    HW136157   0.113   5.145   4.045 -0.3129  0.1955  0.6304
11569SOL    HW236158   0.145   5.117   4.191 -0.5666 -0.5551  0.5477
11570SOL     OW36159   5.544   3.484   1.740  0.3342 -0.3299  0.5319
11570SOL    HW136160   5.497   3.403   1.718  0.9448 -0.4824 -0.2533
11570SOL    HW236161   5.503   3.551   1.686  0.9260 -0.4412 -0.0682
11571SOL     OW36162   4.839   6.836   4.357  0.0733  0.2879 -0.0127
11571SOL    HW136163   4.916   6.786   4.331 -0.5098 -0.0308 -1.2114
11571SOL    HW236164   4.773   6.769   4.376  0.0906  0.5556  1.0702
11572SOL     OW36165   3.338   6.607   3.385  0.1346 -0.2311 -0.2363
11572SOL    HW136166   3.269   6.565   3.435  1.1247 -1.3407  0.2409
11572SOL    HW236167   3.415   6.604   3.443  0.7960  0.2235 -1.0635
11573SOL     OW36168   2.241   2.934   3.297  0.4408  0.6609  0.5691
11573SOL    HW136169   2.198   3.005   3.249 -3.5118 -1.4571  0.5268
11573SOL    HW236170   2.202   2.938   3.385  1.8676 -0.0917  1.2689
11574SOL     OW36171   3.102   0.024   3.645 -0.0447 -0.0008  0.1372
11574SOL    HW136172   3.154   0.104   3.648  1.2430 -0.8349  1.1486
11574SOL    HW236173   3.165  -0.044   3.622 -1.4736 -0.4901 -2.7448
11575SOL     OW36174   7.104   0.875   5.071  0.3759  0.1972  0.1451
11575SOL    HW136175   7.146   0.812   5.012 -0.4254  1.5300 -1.9883
11575SOL    HW236176   7.145   0.959   5.050 -0.2374  0.7885  1.2153
11576SOL     OW36177   3.604   4.836   2.318  0.2866 -0.0132  0.2289
11576SOL    HW136178   3.688   4.879   2.330 -0.5446  1.7471  0.0893
11576SOL    HW236179   3.594   4.780   2.395 -0.5643  3.5479  2.9836
11577SOL     OW36180   7.071   2.436   2.724  0.5818  0.1544  0.1437
11577SOL    HW136181   7.135   2.367   2.705  0.3545  0.2087 -0.8960
11577SOL    HW236182   7.076   2.448   2.819  0.6700 -1.2491  0.3367
11578SOL     OW36183   2.657   3.488   4.929 -0.7288 -0.8419 -0.1808
11578SOL    HW136184   2.619   3.564   4.972 -1.7007 -0.6206 -1.3570
11578SOL    HW236185   2.746   3.514   4.907 -1.0365 -0.0639 -0.5302
11579SOL     OW36186   4.427   5.120   2.944 -0.3028  0.1745 -0.6011
11579SOL    HW136187   4.468   5.121   2.858 -0.8571 -2.0229 -0.9611
11579SOL    HW236188   4.337   5.151   2.929 -0.2753  0.1877 -0.7366
11580SOL     OW36189   4.519   2.274   6.269  0.5264 -0.1628  0.6317
11580SOL    HW136190   4.458   2.251   6.199 -0.3217 -0.6228  1.4977
11580SOL    HW236191   4.474   2.247   6.350  2.2170 -1.2290  1.2466
11581SOL     OW36192   1.239   5.653   0.917 -0.4701 -0.6293 -0.1899
11581SOL    HW136193   1.258   5.635   0.825  1.7481 -0.3522  0.1630
11581SOL    HW236194   1.235   5.567   0.959 -1.0905 -0.7357 -0.4525
11582SOL     OW36195   3.025   1.765   0.120  0.1281  0.3438  0.2048
11582SOL    HW136196   2.989   1.830   0.060 -0.1127  0.5597  0.5783
11582SOL    HW236197   2.951   1.709   0.142  0.4708 -0.4451 -0.6024
11583SOL     OW36198   1.327   3.335   3.241  0.2389 -0.0388  0.0645
11583SOL    HW136199   1.328   3.322   3.336  1.2481  0.7150  0.1810
11583SOL    HW236200   1.380   3.263   3.207  0.7965  0.3081  0.1807
11584SOL     OW36201   1.713   6.844   3.104 -0.2820 -0.3073 -0.1244
11584SOL    HW136202   1.624   6.849   3.137 -0.9433 -2.7464 -1.2893
11584SOL    HW236203   1.768   6.871   3.178 -1.9176 -0.0548  1.0385
11585SOL     OW36204   2.194   2.738   4.281  0.3529 -0.4351  0.6367
11585SOL    HW136205   2.118   2.757   4.336  0.4096  0.0101  0.5669
11585SOL    HW236206   2.202   2.643   4.282 -1.3272 -0.6342 -0.8673
11586SOL     OW36207   0.891   2.297   1.523  0.2999  0.0969 -0.2256
11586SOL    HW136208   0.967   2.294   1.466  0.5515  1.5557 -0.0183
11586SOL    HW236209   0.820   2.328   1.467  0.2171  0.1952 -0.0683
11587SOL     OW36210   0.892   0.490   3.372  0.2017  0.3365 -0.3093
11587SOL    HW136211   0.895   0.567   3.316 -1.3759  0.1848 -0.6361
11587SOL    HW236212   0.980   0.485   3.410 -0.2901  3.8705  1.8177
11588SOL     OW36213   0.935   0.656   2.249  0.3461 -0.0231  0.3244
11588SOL    HW136214   0.914   0.695   2.164 -0.3213  1.5914  1.1751
11588SOL    HW236215   0.883   0.707   2.312 -0.7416 -2.4572  1.5279
11589SOL     OW36216   0.075   6.326   5.346  0.0198  0.0149  0.0733
11589SOL    HW136217   0.012   6.315   5.417 -2.4264 -1.6460 -2.1586
11589SOL    HW236218   0.118   6.240   5.339 -0.1310  0.0007 -0.7534
11590SOL     OW36219   6.191   5.464   0.932 -0.2232  0.1659  0.2487
11590SOL    HW136220   6.225   5.375   0.938 -1.9338 -0.5621 -0.3643
11590SOL    HW236221   6.175   5.490   1.023  0.0373 -0.2315  0.4092
11591SOL     OW36222   5.361   6.880   5.988 -0.1676  0.0553 -0.5783
11591SOL    HW136223   5.432   6.866   6.051  0.8749  2.2736 -1.1389
11591SOL    HW236224   5.400   6.856   5.903 -1.3524 -2.2893 -0.5435
11592SOL     OW36225   1.556   6.617   2.476  0.4446  0.0077 -0.2973
11592SOL    HW136226   1.501   6.676   2.424  0.6022  0.6369  0.2538
11592SOL    HW236227   1.638   6.664   2.487  0.9907 -0.7938 -0.8300
11593SOL     OW36228   4.345   5.749   6.662 -0.0127 -0.1118  0.1627
11593SOL    HW136229   4.416   5.745   6.599  1.5578  2.1197  1.6442
11593SOL    HW236230   4.346   5.839   6.695 -4.2850  0.4156 -0.5204
11594SOL     OW36231   3.358   4.880   1.657  0.9947 -0.4693 -0.5139
11594SOL    HW136232   3.382   4.971   1.638 -0.5965 -0.2436 -1.5656
11594SOL    HW236233   3.412   4.857   1.733  3.2819  0.5192 -1.7158
11595SOL     OW36234   4.185   3.097   5.525 -0.1513  0.0282 -0.7973
11595SOL    HW136235   4.225   3.023   5.479  0.0902 -0.7175  0.5468
11595SOL    HW236236   4.242   3.171   5.504  0.9293 -0.6458 -0.3768
11596SOL     OW36237   7.090   1.244   0.533  0.1333  0.3744  0.5226
11596SOL    HW136238   7.129   1.263   0.448 -4.6836  0.1140 -2.1491
11596SOL    HW236239   7.064   1.152   0.527 -1.8849  0.8262  1.4296
11597SOL     OW36240   2.653   7.055   1.255 -0.4391  0.2309  0.0570
11597SOL    HW136241   2.583   7.035   1.194  0.4745 -0.2569 -0.8566
11597SOL    HW236242   2.695   7.134   1.219 -0.7235  0.7369  0.7906
11598SOL     OW36243   0.740   3.659   0.790 -0.1876  0.6509 -0.2085
11598SOL    HW136244   0.725   3.610   0.709  1.5267 -1.5416  0.6978
11598SOL    HW236245   0.831   3.690   0.782  0.6365 -1.1147  1.5398
11599SOL     OW36246   7.078   6.550   1.932  0.0012 -0.5438  0.4164
11599SOL    HW136247   7.069   6.465   1.890 -1.0125 -1.2579  1.9649
11599SOL    HW236248   7.022   6.608   1.881 -0.0354 -1.0411 -0.1142
11600SOL     OW36249   5.948   3.317   1.562 -0.4167  0.0679  0.6066
11600SOL    HW136250   5.940   3.238   1.616 -0.6343  0.5995  1.3705
11600SOL    HW236251   6.010   3.372   1.609  0.3080  0.0494 -0.3097
11601SOL     OW36252   3.572   5.727   6.624  0.8224  0.0224  0.0833
11601SOL    HW136253   3.611   5.690   6.703  1.4402  0.4062 -0.0306
11601SOL    HW236254   3.637   5.709   6.555  0.0217 -0.8554 -0.4680
11602SOL     OW36255   6.986   2.184   3.257  0.1407  0.0991  0.0930
11602SOL    HW136256   6.970   2.091   3.274  1.4567 -0.2431 -0.4143
11602SOL    HW236257   7.082   2.192   3.257  0.0691  1.7588  1.7044
11603SOL     OW36258   6.278   5.028   5.450  0.4064 -0.1894 -0.0596
11603SOL    HW136259   6.299   5.115   5.485  0.0604  0.1927 -0.7713
11603SOL    HW236260   6.340   4.969   5.493  1.3014  0.5524 -0.2946
11604SOL     OW36261   5.694   5.327   6.527 -0.4411 -0.1535  0.1880
11604SOL    HW136262   5.629   5.361   6.588 -0.4675 -1.5786  1.0272
11604SOL    HW236263   5.644   5.303   6.449 -0.3712  1.9191 -0.5558
11605SOL     OW36264   3.503   2.524   0.914 -0.0045 -0.5156 -0.8608
11605SOL    HW136265   3.462   2.442   0.886 -0.5374 -0.3645 -0.5566
11605SOL    HW236266   3.437   2.566   0.970  0.6472 -0.3490 -0.1957
11606SOL     OW36267   0.220   0.474   6.021 -0.2282  0.0275  0.3488
11606SOL    HW136268   0.206   0.382   6.044 -0.3570  0.1232  0.6661
11606SOL    HW236269   0.134   0.515   6.035 -0.3313  0.0722 -0.4047
11607SOL     OW36270   1.855   3.325   0.301 -0.3321  0.1408  0.0348
11607SOL    HW136271   1.892   3.328   0.212  1.4284  0.1784  0.7238
11607SOL    HW236272   1.831   3.234   0.314  1.4669 -0.3485  0.2624
11608SOL     OW36273   3.426   4.207   2.471  0.5227  0.0341 -0.0017
11608SOL    HW136274   3.515   4.177   2.490  0.6804  0.6535  0.2452
11608SOL    HW236275   3.424   4.298   2.501  0.0414  0.2652 -0.7101
11609SOL     OW36276   2.806   4.085   1.495  0.3183 -0.4342  0.3867
11609SOL    HW136277   2.847   4.120   1.416  2.3022 -1.6421  0.8275
11609SOL    HW236278   2.732   4.033   1.462 -0.2766  0.8999 -0.4930
11610SOL     OW36279   0.460   0.238   0.150  0.7027  0.5220 -0.8470
11610SOL    HW136280   0.482   0.266   0.061  0.7070 -0.1428 -1.0621
11610SOL    HW236281   0.405   0.308   0.184  0.4292  0.6354 -1.4949
11611SOL     OW36282   1.685   0.114   6.817 -0.5094 -0.0932 -0.1653
11611SOL    HW136283   1.640   0.198   6.811  0.0460  0.1717 -0.7620
11611SOL    HW236284   1.658   0.078   6.901 -0.3127  0.9406  0.3574
11612SOL     OW36285   5.572   0.074   0.754  0.4512  0.6436  0.6356
11612SOL    HW136286   5.599  -0.001   0.700 -0.9008  1.2486 -0.9469
11612SOL    HW236287   5.645   0.135   0.747  0.3856  0.6302 -0.3851
11613SOL     OW36288   5.957   3.175   5.431 -0.0434  0.4430  0.1996
11613SOL    HW136289   6.021   3.206   5.495 -0.9312 -0.1980  1.4353
11613SOL    HW236290   5.968   3.080   5.429 -0.2990  0.4169 -0.3195
11614SOL     OW36291   4.932   3.587   2.567 -0.6648  0.1094  0.5495
11614SOL    HW136292   4.920   3.529   2.492  2.5997  0.7731 -0.6535
11614SOL    HW236293   4.974   3.532   2.633  2.1921  0.8512 -0.4986
11615SOL     OW36294   0.612   5.944   1.180  0.0857 -0.6146  0.0776
11615SOL    HW136295   0.681   5.915   1.120 -0.1050  0.6129 -0.7659
11615SOL    HW236296   0.567   6.014   1.133 -1.2335 -0.8514  0.9432
11616SOL     OW36297   2.478   2.152   0.469  0.6511  0.2533 -0.5554
11616SOL    HW136298   2.461   2.154   0.374  0.0913  1.4512 -0.4614
11616SOL    HW236299   2.570   2.174   0.477  0.6107  0.5339 -0.8188
11617SOL     OW36300   0.232   0.962   2.534  0.1676 -0.2578  0.5569
11617SOL    HW136301   0.240   1.057   2.544 -1.5117  0.0896 -1.0185
11617SOL    HW236302   0.188   0.949   2.450  0.2748 -2.4403  0.7617
11618SOL     OW36303   2.645   0.526   2.789 -0.0095 -0.3820 -0.1352
11618SOL    HW136304   2.634   0.615   2.754 -0.2901 -1.0398 -1.8414
11618SOL    HW236305   2.618   0.469   2.717  0.3791 -1.8619  0.8492
11619SOL     OW36306   4.370   6.179   5.470 -0.4924  0.1278 -0.3581
11619SOL    HW136307   4.360   6.274   5.462 -0.0205  0.2965  0.9417
11619SOL    HW236308   4.460   6.166   5.498 -0.5139 -0.7194 -0.6399
11620SOL     OW36309   1.973   5.712   5.187 -0.9464 -0.1645 -0.2569
11620SOL    HW136310   2.000   5.681   5.274 -0.3486 -0.7464 -0.6449
11620SOL    HW236311   1.883   5.742   5.200 -0.8190 -0.1129  0.5969
11621SOL     OW36312   0.872   4.181   3.377 -0.0383 -0.3930 -0.1940
11621SOL    HW136313   0.884   4.086   3.378 -0.3458 -0.5350 -2.7439
11621SOL    HW236314   0.950   4.216   3.420 -1.2318 -1.7672  3.4928
11622SOL     OW36315   6.636   6.468   5.604 -0.1695 -0.1557  0.5329
11622SOL    HW136316   6.644   6.545   5.660 -3.3023 -0.0011  0.9507
11622SOL    HW236317   6.582   6.497   5.530 -1.2911 -1.8663  0.6193
11623SOL     OW36318   5.272   0.524   2.533  0.2279  0.4374  0.3997
11623SOL    HW136319   5.243   0.521   2.624 -0.8067 -1.0317  0.0567
11623SOL    HW236320   5.272   0.432   2.505 -1.5883  0.9880 -1.7008
11624SOL     OW36321   2.400   5.545   3.729 -0.0306  0.4983  0.0388
11624SOL    HW136322   2.432   5.636   3.729 -0.0157  0.4942  0.8825
11624SOL    HW236323   2.375   5.528   3.819 -2.7485  0.6118 -0.6060
11625SOL     OW36324   6.681   0.450   6.815 -0.4050  0.3032 -0.5238
11625SOL    HW136325   6.602   0.427   6.865  0.8108 -0.7785  0.9943
11625SOL    HW236326   6.695   0.376   6.757  0.4209 -0.3133  0.4316
11626SOL     OW36327   6.760   5.492   0.127  0.5606 -0.1431  0.9029
11626SOL    HW136328   6.814   5.444   0.064 -1.4210  0.5944 -1.5149
11626SOL    HW236329   6.690   5.431   0.150  0.7046 -0.0478  1.6183
11627SOL     OW36330   6.291   0.789   1.577 -0.1980  0.2523 -0.4653
11627SOL    HW136331   6.351   0.821   1.645  0.0907 -0.4887 -0.3579
11627SOL    HW236332   6.289   0.859   1.512  2.1214 -0.3938 -1.3044
11628SOL     OW36333   0.188   4.054   3.369 -0.1554  0.0267 -0.2689
11628SOL    HW136334   0.183   4.019   3.280 -1.3753 -2.2302  0.5972
11628SOL    HW236335   0.207   3.978   3.423  0.7773  1.3873  1.4108
11629SOL     OW36336   6.612   1.335   0.825 -0.2485  0.0509  0.0880
11629SOL    HW136337   6.668   1.411   0.813  1.2324 -1.0201 -0.0456
11629SOL    HW236338   6.641   1.273   0.758 -1.0187 -0.8646  0.5712
11630SOL     OW36339   2.157   3.323   6.118 -0.0793 -0.3723  0.0745
11630SOL    HW136340   2.118   3.236   6.115 -0.3703 -0.2403  0.0570
11630SOL    HW236341   2.251   3.306   6.132 -0.1151 -0.6905 -0.0555
11631SOL     OW36342   5.794   5.671   6.182  0.0432  0.1448  1.0664
11631SOL    HW136343   5.717   5.637   6.136  1.8024 -1.5493 -0.8279
11631SOL    HW236344   5.824   5.599   6.237  0.6251  0.5742  1.3260
11632NA      NA36345   1.604   7.102   5.253 -0.0123 -0.1316  0.5686
11633NA      NA36346   0.503   3.303   7.079  0.1260  0.1448  0.2050
11634NA      NA36347   3.434   5.887   1.583  0.3734 -0.4289 -0.0938
11635NA      NA36348   4.467   0.043   4.238 -0.0198  0.0183 -0.2531
11636NA      NA36349   1.452   6.156   2.361  0.2824  0.2537  0.4560
11637NA      NA36350   1.823   5.326   3.190  0.2800 -0.7404  0.0588
11638NA      NA36351   0.272   2.717   4.709  0.2697  0.1036 -0.4189
11639NA      NA36352   0.034   6.486   3.571  0.3208  0.1587  0.2362
11640NA      NA36353   0.047   5.355   1.459 -0.3342  0.7191 -0.1477
11641NA      NA36354   3.508   0.474   6.098 -0.4415 -0.0814  0.0495
11642NA      NA36355   2.521   1.829   5.573  0.0382 -0.3368  0.1030
11643NA      NA36356   6.147   5.064   0.916 -0.2592 -0.2135 -0.2682
11644NA      NA36357   6.735   0.638   2.316 -0.0545 -0.2677  0.2669
11645NA      NA36358   6.143   2.513   6.694 -0.1220 -0.1611  0.5275
11646NA      NA36359   2.038   4.413   5.567  0.5803 -0.5765 -0.1055
11647NA      NA36360   1.903   6.680   0.717  0.1527 -0.2703 -0.1716
11648NA      NA36361   0.919   1.912   5.465  0.1060  0.6511  0.0915
11649NA      NA36362   4.016   6.641   5.139 -0.6361  0.1821 -0.6963
11650NA      NA36363   2.264   1.521   0.671 -0.6636 -0.4273  0.2657
11651NA      NA36364   0.353   4.043   2.312 -0.4371  0.8513 -0.1130
11652NA      NA36365   7.023   2.153   1.541  0.4686  0.6211  0.2289
11653NA      NA36366   1.362   1.209   6.643  0.1137 -0.0686 -0.0686
11654NA      NA36367   6.785   0.342   0.139  0.0061 -0.1276 -0.0679
11655NA      NA36368   1.705   3.462   2.511  0.2439 -0.0037 -0.1527
11656NA      NA36369   0.866   5.364   3.608  0.4427  0.3539 -0.2462
11657NA      NA36370   2.384   7.005   0.705  0.2072  0.1578 -0.3256
11658NA      NA36371   6.732   3.848   3.031  0.0558 -0.0116  0.5214
11659NA      NA36372   5.771   6.203   5.290  0.6206  0.0383 -0.1354
11660NA      NA36373   2.945   3.489   0.118 -0.0776 -0.4888 -0.2702
11661NA      NA36374   2.824   4.597   6.245 -0.0408  0.0329  0.2657
11662NA      NA36375   6.301   4.015   1.885 -0.2922 -0.6192  0.3108
11663NA      NA36376   0.632   6.068   1.616 -0.7706  0.3521 -0.2149
11664NA      NA36377   2.222   5.357   3.370  0.1720 -0.2046 -0.2131
11665NA      NA36378   7.117   5.055   5.457  0.1128 -0.2486 -0.0118
11666CL      CL36379   3.787   1.848   3.957  0.0789  0.2160  0.1125
11667CL      CL36380   6.968   1.826   0.746 -0.0372  0.6628  0.2207
11668CL      CL36381   2.893   0.214   4.582 -0.4834  0.0695 -0.3477
11669CL      CL36382   6.121   1.383   2.896  0.1406  0.0172 -0.3942
11670CL      CL36383   0.630   6.557   2.382 -0.0831 -0.0966 -0.1048
11671CL      CL36384   1.677   1.488   5.555  0.6242 -0.4829 -0.0434
11672CL      CL36385   5.687   6.562   1.948 -0.0235 -0.2683  0.3467
11673CL      CL36386   2.510   3.929   2.977 -0.2247  0.0544  0.0317
11674CL      CL36387   5.003   2.277   6.314  0.0106  0.1239 -0.2966
11675CL      CL36388   2.559   1.540   0.945  0.2950  0.1314 -0.3260
11676CL      CL36389   0.785   5.115   2.045 -0.0867  0.3729  0.2688
11677CL      CL36390   0.237   1.536   3.007  0.4252 -0.5566 -0.4943
11678CL      CL36391   3.982   4.039   3.515  0.1366  0.1456  0.1599
11679CL      CL36392   5.514   0.850   2.634  0.2153  0.1250  0.0835
11680CL      CL36393   4.977   2.239   1.868 -0.0596  0.4360  0.2463
11681CL      CL36394   2.323   5.529   2.829 -0.2246  0.0885 -0.2128
11682CL      CL36395   2.763   3.855   5.106  0.3318  0.0340  0.4072
11683CL      CL36396   2.243   1.963   0.851 -0.1143  0.1726  0.0090
11684CL      CL36397   5.244   6.916   4.946  0.0503  0.4616  0.0693
11685CL      CL36398   0.943   3.322   2.778 -0.0406  0.5354 -0.4498
11686CL      CL36399   4.363   5.246   6.913 -0.1343 -0.1188 -0.1574
11687CL      CL36400   4.383   2.923   5.364 -0.1266  0.0284 -0.0238
11688CL      CL36401   4.913   3.502   0.815  0.1722 -0.3573  0.6466
11689CL      CL36402   4.031   0.004   2.336 -0.1297 -0.0054 -0.0310
11690CL      CL36403   5.607   2.204   0.605 -0.1222 -0.0383  0.3006
11691CL      CL36404   6.353   4.760   1.206  0.0426 -0.1051 -0.1221
11692CL      CL36405   1.973   1.943   5.222 -0.5983 -0.4051  0.0198
11693CL      CL36406   4.717   0.306   4.582  0.1366 -0.1724 -0.2148
11694CL      CL36407   1.515   1.611   6.854  0.2073  0.1709 -0.1509
11695CL      CL36408   0.234   3.744   3.454 -0.5371  0.2623 -0.0706
11696CL      CL36409   2.391   2.016   5.493 -0.4572 -0.2104 -0.4084
11697CL      CL36410   1.163   5.645   6.552  0.2724 -0.1120 -0.0328
11698CL      CL36411   3.312   5.167   4.420  0.2716  0.1933  0.0348
11699CL      CL36412   0.474   1.623   1.747  0.1807  0.0563  0.0283
11700CL      CL36413   2.785   0.088   2.015 -0.3569 -0.0885  0.2467
11701CL      CL36414   5.430   3.754   6.995  0.3714  0.0716 -0.2197
11702CL      CL36415   4.611   1.657   3.567 -0.6483  0.1572 -0.1459
11703CL      CL36416   2.279   6.661   0.959 -0.1688  0.2862 -0.4765
11704CL      CL36417   6.059   7.117   0.692  0.2567 -0.2557  0.2927
11705CL      CL36418   3.418   0.058   5.784 -0.0165  0.0010 -0.1859
11706CL      CL36419   6.242   5.459   1.592 -0.0497  0.1631  0.0635
11707CL      CL36420   0.437   0.536   0.908  0.1723  0.0337  0.6631
11708CL      CL36421   7.107   6.517   6.301  0.2926 -0.1271  0.0853
11709CL      CL36422   4.613   2.059   3.909 -0.4027  0.0224  0.2071
11710CL      CL36423   2.609   4.508   6.259 -0.0441  0.1720 -0.1143
11711CL      CL36424   0.749   1.914   3.098 -0.1020 -0.0861  0.1446
11712CL      CL36425   6.757   5.031   3.726  0.0412 -0.4451 -0.0098
11713CL      CL36426   4.615   1.357   2.888  0.0637  0.4863 -0.0595
11714CL      CL36427   0.238   3.010   6.612 -0.3855 -0.3572 -0.2620
11715CL      CL36428   1.380   2.959   5.575  0.4082 -0.0136  0.3954
11716CL      CL36429   6.409   3.805   1.934  0.0908 -0.1342  0.3677
11717CL      CL36430   1.924   4.477   5.776  0.2999  0.1572 -0.0657
11718CL      CL36431   6.592   2.697   5.176  0.2813  0.1469  0.3134
11719CL      CL36432   5.258   0.530   3.203 -0.3049  0.1859 -0.0141
11720CL      CL36433   3.910   0.369   4.449  0.2717 -0.4472  0.3687
11721CL      CL36434   6.008   5.234   2.164  0.2377  0.0390 -0.0678
11722CL      CL36435   3.528   0.747   5.632  0.0039  0.2916 -0.4812
11723CL      CL36436   0.443   2.470   5.116 -0.1559 -0.3573 -0.2594
11724CL      CL36437   0.791   6.961   3.208  0.2111  0.0935 -0.1593
11725CL      CL36438   4.901   2.584   4.050  0.3123  0.2051 -0.1623
11726CL      CL36439   5.734   2.144   1.422  0.1396  0.3806  0.2116
11727CL      CL36440   3.776   1.888   2.622 -0.2484  0.3145 -0.2053
11728CL      CL36441   4.879   0.924   3.565 -0.3753 -0.2574 -0.7567
11729CL      CL36442   3.858   2.415   3.075  0.2198 -0.0093  0.1183
   7.14296   7.14296   7.14296
