;
;   File pamam_g2.5dp_dglucose.itp  was generated
;   By user: sairam (1000)
;   On host: sairam
;   At date: Fri. January  5 09:47:31 2025
;
;   This is a standalone topology file
;
;   Created by:
;   ParmEd:       amb2gro_top_gro.py, VERSION 3.4.1
;   Executable:   amb2gro_top_gro.py
;   Library dir:  /usr/local/gromacs/share/gromacs/top
;   Command line:
;     ./amb2gro_top_gro.py -p pamam_g2.5dp_dglucose.prmtop -c pamam_g2.5dp_dglucose.inpcrd -t pamam_g2.5dp_dglucose.itp -g pamam_g2.5dp_dglucose.gro -b pamam_g2.5dp_dglucose.pdb
;

;[ defaults ]
;; nbfunc        comb-rule       gen-pairs       fudgeLJ fudgeQQ
;1               2               yes             0.5          0.83333333  
;
;[ atomtypes ]
;; name    at.num    mass    charge ptype  sigma      epsilon
;n4             7  14.010000  0.00000000  A     0.32499985        0.71128
;c3             6  12.010000  0.00000000  A     0.33996695      0.4577296
;c              6  12.010000  0.00000000  A     0.33996695       0.359824
;o              8  16.000000  0.00000000  A     0.29599219        0.87864
;hx             1   1.008000  0.00000000  A     0.19599772      0.0656888
;hc             1   1.008000  0.00000000  A     0.26495328      0.0656888
;hn             1   1.008000  0.00000000  A     0.10690785      0.0656888
;n              7  14.010000  0.00000000  A     0.32499985        0.71128
;h1             1   1.008000  0.00000000  A      0.2471353      0.0656888
;h2             1   1.008000  0.00000000  A     0.22931733      0.0656888
;oh             8  16.000000  0.00000000  A     0.30664734      0.8803136
;ho             1   1.008000  0.00000000  A              0              0
;os             8  16.000000  0.00000000  A     0.30000123        0.71128
;n3             7  14.010000  0.00000000  A     0.32499985        0.71128


[ moleculetype ]
; Name            nrexcl
pamam_g2.5dp_dglucose          3

[ atoms ]
;   nr       type  resnr residue  atom   cgnr    charge       mass  typeB    chargeB      massB
; residue    1 aaa rtp aaa q 2.0
    1         n4      1    aaa     N1      1 -0.01815100  14.010000   ; qtot -0.018151
    2         c3      1    aaa     C1      2 0.01243000  12.010000   ; qtot -0.005721
    3         c3      1    aaa     C2      3 0.01243000  12.010000   ; qtot 0.006709
    4         n4      1    aaa     N2      4 -0.01815100  14.010000   ; qtot -0.011442
    5         c3      1    aaa     C3      5 -0.01431700  12.010000   ; qtot -0.025759
    6         c3      1    aaa     C4      6 -0.01431700  12.010000   ; qtot -0.040076
    7         c3      1    aaa     C5      7 -0.01431700  12.010000   ; qtot -0.054393
    8         c3      1    aaa     C6      8 -0.01431700  12.010000   ; qtot -0.068710
    9         c3      1    aaa     C7      9 -0.26758200  12.010000   ; qtot -0.336292
   10          c      1    aaa     C8     10 0.71337400  12.010000   ; qtot 0.377082
   11         c3      1    aaa     C9     11 -0.26758200  12.010000   ; qtot 0.109500
   12          c      1    aaa    C10     12 0.71337400  12.010000   ; qtot 0.822874
   13         c3      1    aaa    C11     13 -0.26758200  12.010000   ; qtot 0.555292
   14          c      1    aaa    C12     14 0.71337400  12.010000   ; qtot 1.268666
   15         c3      1    aaa    C13     15 -0.26758200  12.010000   ; qtot 1.001084
   16          c      1    aaa    C14     16 0.71337400  12.010000   ; qtot 1.714458
   17          o      1    aaa     O1     17 -0.55531800  16.000000   ; qtot 1.159140
   18          o      1    aaa     O2     18 -0.55531800  16.000000   ; qtot 0.603822
   19          o      1    aaa     O3     19 -0.55531800  16.000000   ; qtot 0.048504
   20          o      1    aaa     O4     20 -0.55531800  16.000000   ; qtot -0.506814
   21         hx      1    aaa     H1     21 0.08276100   1.008000   ; qtot -0.424053
   22         hx      1    aaa     H2     22 0.08276100   1.008000   ; qtot -0.341292
   23         hx      1    aaa     H3     23 0.08276100   1.008000   ; qtot -0.258531
   24         hx      1    aaa     H4     24 0.08276100   1.008000   ; qtot -0.175770
   25         hx      1    aaa     H5     25 0.10467000   1.008000   ; qtot -0.071100
   26         hx      1    aaa     H6     26 0.10467000   1.008000   ; qtot 0.033570
   27         hx      1    aaa     H7     27 0.10467000   1.008000   ; qtot 0.138240
   28         hx      1    aaa     H8     28 0.10467000   1.008000   ; qtot 0.242910
   29         hx      1    aaa     H9     29 0.10467000   1.008000   ; qtot 0.347580
   30         hx      1    aaa    H10     30 0.10467000   1.008000   ; qtot 0.452250
   31         hx      1    aaa    H11     31 0.10467000   1.008000   ; qtot 0.556920
   32         hx      1    aaa    H12     32 0.10467000   1.008000   ; qtot 0.661590
   33         hc      1    aaa    H13     33 0.11830200   1.008000   ; qtot 0.779892
   34         hc      1    aaa    H14     34 0.11830200   1.008000   ; qtot 0.898194
   35         hc      1    aaa    H15     35 0.11830200   1.008000   ; qtot 1.016496
   36         hc      1    aaa    H16     36 0.11830200   1.008000   ; qtot 1.134798
   37         hc      1    aaa    H17     37 0.11830200   1.008000   ; qtot 1.253100
   38         hc      1    aaa    H18     38 0.11830200   1.008000   ; qtot 1.371402
   39         hc      1    aaa    H19     39 0.11830200   1.008000   ; qtot 1.489704
   40         hc      1    aaa    H20     40 0.11830200   1.008000   ; qtot 1.608006
   41         hn      1    aaa    H37     41 0.19599700   1.008000   ; qtot 1.804003
   42         hn      1    aaa    H38     42 0.19599700   1.008000   ; qtot 2.000000
; residue    2 bbb rtp bbb q 1.0
   43         n4      2    bbb     N1     43 -0.02747900  14.010000   ; qtot 1.972521
   44         c3      2    bbb     C1     44 -0.05097600  12.010000   ; qtot 1.921545
   45         c3      2    bbb     C2     45 -0.05097600  12.010000   ; qtot 1.870569
   46         c3      2    bbb     C3     46 -0.18457900  12.010000   ; qtot 1.685990
   47          c      2    bbb     C4     47 0.67254400  12.010000   ; qtot 2.358534
   48         c3      2    bbb     C5     48 -0.18457900  12.010000   ; qtot 2.173955
   49          c      2    bbb     C6     49 0.67254400  12.010000   ; qtot 2.846499
   50         c3      2    bbb     C7     50 -0.02083000  12.010000   ; qtot 2.825669
   51         c3      2    bbb     C8     51 -0.03328100  12.010000   ; qtot 2.792388
   52          n      2    bbb     N2     52 -0.33303000  14.010000   ; qtot 2.459358
   53          o      2    bbb     O1     53 -0.52917200  16.000000   ; qtot 1.930186
   54          o      2    bbb     O2     54 -0.52917200  16.000000   ; qtot 1.401014
   55         hx      2    bbb     H1     55 0.11563300   1.008000   ; qtot 1.516647
   56         hx      2    bbb     H2     56 0.11563300   1.008000   ; qtot 1.632280
   57         hx      2    bbb     H3     57 0.11563300   1.008000   ; qtot 1.747913
   58         hx      2    bbb     H4     58 0.11563300   1.008000   ; qtot 1.863546
   59         hc      2    bbb     H5     59 0.08347900   1.008000   ; qtot 1.947025
   60         hc      2    bbb     H6     60 0.08347900   1.008000   ; qtot 2.030504
   61         hc      2    bbb     H7     61 0.08347900   1.008000   ; qtot 2.113983
   62         hc      2    bbb     H8     62 0.08347900   1.008000   ; qtot 2.197462
   63         hx      2    bbb     H9     63 0.07988000   1.008000   ; qtot 2.277342
   64         hx      2    bbb    H10     64 0.07988000   1.008000   ; qtot 2.357222
   65         h1      2    bbb    H11     65 0.10618100   1.008000   ; qtot 2.463403
   66         h1      2    bbb    H12     66 0.10618100   1.008000   ; qtot 2.569584
   67         hn      2    bbb    H13     67 0.25916100   1.008000   ; qtot 2.828745
   68         hn      2    bbb    H25     68 0.17125500   1.008000   ; qtot 3.000000
; residue    3 bbb rtp bbb q 1.0
   69         n4      3    bbb     N1     69 -0.02747900  14.010000   ; qtot 2.972521
   70         c3      3    bbb     C1     70 -0.05097600  12.010000   ; qtot 2.921545
   71         c3      3    bbb     C2     71 -0.05097600  12.010000   ; qtot 2.870569
   72         c3      3    bbb     C3     72 -0.18457900  12.010000   ; qtot 2.685990
   73          c      3    bbb     C4     73 0.67254400  12.010000   ; qtot 3.358534
   74         c3      3    bbb     C5     74 -0.18457900  12.010000   ; qtot 3.173955
   75          c      3    bbb     C6     75 0.67254400  12.010000   ; qtot 3.846499
   76         c3      3    bbb     C7     76 -0.02083000  12.010000   ; qtot 3.825669
   77         c3      3    bbb     C8     77 -0.03328100  12.010000   ; qtot 3.792388
   78          n      3    bbb     N2     78 -0.33303000  14.010000   ; qtot 3.459358
   79          o      3    bbb     O1     79 -0.52917200  16.000000   ; qtot 2.930186
   80          o      3    bbb     O2     80 -0.52917200  16.000000   ; qtot 2.401014
   81         hx      3    bbb     H1     81 0.11563300   1.008000   ; qtot 2.516647
   82         hx      3    bbb     H2     82 0.11563300   1.008000   ; qtot 2.632280
   83         hx      3    bbb     H3     83 0.11563300   1.008000   ; qtot 2.747913
   84         hx      3    bbb     H4     84 0.11563300   1.008000   ; qtot 2.863546
   85         hc      3    bbb     H5     85 0.08347900   1.008000   ; qtot 2.947025
   86         hc      3    bbb     H6     86 0.08347900   1.008000   ; qtot 3.030504
   87         hc      3    bbb     H7     87 0.08347900   1.008000   ; qtot 3.113983
   88         hc      3    bbb     H8     88 0.08347900   1.008000   ; qtot 3.197462
   89         hx      3    bbb     H9     89 0.07988000   1.008000   ; qtot 3.277342
   90         hx      3    bbb    H10     90 0.07988000   1.008000   ; qtot 3.357222
   91         h1      3    bbb    H11     91 0.10618100   1.008000   ; qtot 3.463403
   92         h1      3    bbb    H12     92 0.10618100   1.008000   ; qtot 3.569584
   93         hn      3    bbb    H13     93 0.25916100   1.008000   ; qtot 3.828745
   94         hn      3    bbb    H25     94 0.17125500   1.008000   ; qtot 4.000000
; residue    4 bbb rtp bbb q 1.0
   95         n4      4    bbb     N1     95 -0.02747900  14.010000   ; qtot 3.972521
   96         c3      4    bbb     C1     96 -0.05097600  12.010000   ; qtot 3.921545
   97         c3      4    bbb     C2     97 -0.05097600  12.010000   ; qtot 3.870569
   98         c3      4    bbb     C3     98 -0.18457900  12.010000   ; qtot 3.685990
   99          c      4    bbb     C4     99 0.67254400  12.010000   ; qtot 4.358534
  100         c3      4    bbb     C5    100 -0.18457900  12.010000   ; qtot 4.173955
  101          c      4    bbb     C6    101 0.67254400  12.010000   ; qtot 4.846499
  102         c3      4    bbb     C7    102 -0.02083000  12.010000   ; qtot 4.825669
  103         c3      4    bbb     C8    103 -0.03328100  12.010000   ; qtot 4.792388
  104          n      4    bbb     N2    104 -0.33303000  14.010000   ; qtot 4.459358
  105          o      4    bbb     O1    105 -0.52917200  16.000000   ; qtot 3.930186
  106          o      4    bbb     O2    106 -0.52917200  16.000000   ; qtot 3.401014
  107         hx      4    bbb     H1    107 0.11563300   1.008000   ; qtot 3.516647
  108         hx      4    bbb     H2    108 0.11563300   1.008000   ; qtot 3.632280
  109         hx      4    bbb     H3    109 0.11563300   1.008000   ; qtot 3.747913
  110         hx      4    bbb     H4    110 0.11563300   1.008000   ; qtot 3.863546
  111         hc      4    bbb     H5    111 0.08347900   1.008000   ; qtot 3.947025
  112         hc      4    bbb     H6    112 0.08347900   1.008000   ; qtot 4.030504
  113         hc      4    bbb     H7    113 0.08347900   1.008000   ; qtot 4.113983
  114         hc      4    bbb     H8    114 0.08347900   1.008000   ; qtot 4.197462
  115         hx      4    bbb     H9    115 0.07988000   1.008000   ; qtot 4.277342
  116         hx      4    bbb    H10    116 0.07988000   1.008000   ; qtot 4.357222
  117         h1      4    bbb    H11    117 0.10618100   1.008000   ; qtot 4.463403
  118         h1      4    bbb    H12    118 0.10618100   1.008000   ; qtot 4.569584
  119         hn      4    bbb    H13    119 0.25916100   1.008000   ; qtot 4.828745
  120         hn      4    bbb    H25    120 0.17125500   1.008000   ; qtot 5.000000
; residue    5 bbb rtp bbb q 1.0
  121         n4      5    bbb     N1    121 -0.02747900  14.010000   ; qtot 4.972521
  122         c3      5    bbb     C1    122 -0.05097600  12.010000   ; qtot 4.921545
  123         c3      5    bbb     C2    123 -0.05097600  12.010000   ; qtot 4.870569
  124         c3      5    bbb     C3    124 -0.18457900  12.010000   ; qtot 4.685990
  125          c      5    bbb     C4    125 0.67254400  12.010000   ; qtot 5.358534
  126         c3      5    bbb     C5    126 -0.18457900  12.010000   ; qtot 5.173955
  127          c      5    bbb     C6    127 0.67254400  12.010000   ; qtot 5.846499
  128         c3      5    bbb     C7    128 -0.02083000  12.010000   ; qtot 5.825669
  129         c3      5    bbb     C8    129 -0.03328100  12.010000   ; qtot 5.792388
  130          n      5    bbb     N2    130 -0.33303000  14.010000   ; qtot 5.459358
  131          o      5    bbb     O1    131 -0.52917200  16.000000   ; qtot 4.930186
  132          o      5    bbb     O2    132 -0.52917200  16.000000   ; qtot 4.401014
  133         hx      5    bbb     H1    133 0.11563300   1.008000   ; qtot 4.516647
  134         hx      5    bbb     H2    134 0.11563300   1.008000   ; qtot 4.632280
  135         hx      5    bbb     H3    135 0.11563300   1.008000   ; qtot 4.747913
  136         hx      5    bbb     H4    136 0.11563300   1.008000   ; qtot 4.863546
  137         hc      5    bbb     H5    137 0.08347900   1.008000   ; qtot 4.947025
  138         hc      5    bbb     H6    138 0.08347900   1.008000   ; qtot 5.030504
  139         hc      5    bbb     H7    139 0.08347900   1.008000   ; qtot 5.113983
  140         hc      5    bbb     H8    140 0.08347900   1.008000   ; qtot 5.197462
  141         hx      5    bbb     H9    141 0.07988000   1.008000   ; qtot 5.277342
  142         hx      5    bbb    H10    142 0.07988000   1.008000   ; qtot 5.357222
  143         h1      5    bbb    H11    143 0.10618100   1.008000   ; qtot 5.463403
  144         h1      5    bbb    H12    144 0.10618100   1.008000   ; qtot 5.569584
  145         hn      5    bbb    H13    145 0.25916100   1.008000   ; qtot 5.828745
  146         hn      5    bbb    H25    146 0.17125500   1.008000   ; qtot 6.000000
; residue    6 bbb rtp bbb q 1.0
  147         n4      6    bbb     N1    147 -0.02747900  14.010000   ; qtot 5.972521
  148         c3      6    bbb     C1    148 -0.05097600  12.010000   ; qtot 5.921545
  149         c3      6    bbb     C2    149 -0.05097600  12.010000   ; qtot 5.870569
  150         c3      6    bbb     C3    150 -0.18457900  12.010000   ; qtot 5.685990
  151          c      6    bbb     C4    151 0.67254400  12.010000   ; qtot 6.358534
  152         c3      6    bbb     C5    152 -0.18457900  12.010000   ; qtot 6.173955
  153          c      6    bbb     C6    153 0.67254400  12.010000   ; qtot 6.846499
  154         c3      6    bbb     C7    154 -0.02083000  12.010000   ; qtot 6.825669
  155         c3      6    bbb     C8    155 -0.03328100  12.010000   ; qtot 6.792388
  156          n      6    bbb     N2    156 -0.33303000  14.010000   ; qtot 6.459358
  157          o      6    bbb     O1    157 -0.52917200  16.000000   ; qtot 5.930186
  158          o      6    bbb     O2    158 -0.52917200  16.000000   ; qtot 5.401014
  159         hx      6    bbb     H1    159 0.11563300   1.008000   ; qtot 5.516647
  160         hx      6    bbb     H2    160 0.11563300   1.008000   ; qtot 5.632280
  161         hx      6    bbb     H3    161 0.11563300   1.008000   ; qtot 5.747913
  162         hx      6    bbb     H4    162 0.11563300   1.008000   ; qtot 5.863546
  163         hc      6    bbb     H5    163 0.08347900   1.008000   ; qtot 5.947025
  164         hc      6    bbb     H6    164 0.08347900   1.008000   ; qtot 6.030504
  165         hc      6    bbb     H7    165 0.08347900   1.008000   ; qtot 6.113983
  166         hc      6    bbb     H8    166 0.08347900   1.008000   ; qtot 6.197462
  167         hx      6    bbb     H9    167 0.07988000   1.008000   ; qtot 6.277342
  168         hx      6    bbb    H10    168 0.07988000   1.008000   ; qtot 6.357222
  169         h1      6    bbb    H11    169 0.10618100   1.008000   ; qtot 6.463403
  170         h1      6    bbb    H12    170 0.10618100   1.008000   ; qtot 6.569584
  171         hn      6    bbb    H13    171 0.25916100   1.008000   ; qtot 6.828745
  172         hn      6    bbb    H25    172 0.17125500   1.008000   ; qtot 7.000000
; residue    7 bbb rtp bbb q 1.0
  173         n4      7    bbb     N1    173 -0.02747900  14.010000   ; qtot 6.972521
  174         c3      7    bbb     C1    174 -0.05097600  12.010000   ; qtot 6.921545
  175         c3      7    bbb     C2    175 -0.05097600  12.010000   ; qtot 6.870569
  176         c3      7    bbb     C3    176 -0.18457900  12.010000   ; qtot 6.685990
  177          c      7    bbb     C4    177 0.67254400  12.010000   ; qtot 7.358534
  178         c3      7    bbb     C5    178 -0.18457900  12.010000   ; qtot 7.173955
  179          c      7    bbb     C6    179 0.67254400  12.010000   ; qtot 7.846499
  180         c3      7    bbb     C7    180 -0.02083000  12.010000   ; qtot 7.825669
  181         c3      7    bbb     C8    181 -0.03328100  12.010000   ; qtot 7.792388
  182          n      7    bbb     N2    182 -0.33303000  14.010000   ; qtot 7.459358
  183          o      7    bbb     O1    183 -0.52917200  16.000000   ; qtot 6.930186
  184          o      7    bbb     O2    184 -0.52917200  16.000000   ; qtot 6.401014
  185         hx      7    bbb     H1    185 0.11563300   1.008000   ; qtot 6.516647
  186         hx      7    bbb     H2    186 0.11563300   1.008000   ; qtot 6.632280
  187         hx      7    bbb     H3    187 0.11563300   1.008000   ; qtot 6.747913
  188         hx      7    bbb     H4    188 0.11563300   1.008000   ; qtot 6.863546
  189         hc      7    bbb     H5    189 0.08347900   1.008000   ; qtot 6.947025
  190         hc      7    bbb     H6    190 0.08347900   1.008000   ; qtot 7.030504
  191         hc      7    bbb     H7    191 0.08347900   1.008000   ; qtot 7.113983
  192         hc      7    bbb     H8    192 0.08347900   1.008000   ; qtot 7.197462
  193         hx      7    bbb     H9    193 0.07988000   1.008000   ; qtot 7.277342
  194         hx      7    bbb    H10    194 0.07988000   1.008000   ; qtot 7.357222
  195         h1      7    bbb    H11    195 0.10618100   1.008000   ; qtot 7.463403
  196         h1      7    bbb    H12    196 0.10618100   1.008000   ; qtot 7.569584
  197         hn      7    bbb    H13    197 0.25916100   1.008000   ; qtot 7.828745
  198         hn      7    bbb    H25    198 0.17125500   1.008000   ; qtot 8.000000
; residue    8 bbb rtp bbb q 1.0
  199         n4      8    bbb     N1    199 -0.02747900  14.010000   ; qtot 7.972521
  200         c3      8    bbb     C1    200 -0.05097600  12.010000   ; qtot 7.921545
  201         c3      8    bbb     C2    201 -0.05097600  12.010000   ; qtot 7.870569
  202         c3      8    bbb     C3    202 -0.18457900  12.010000   ; qtot 7.685990
  203          c      8    bbb     C4    203 0.67254400  12.010000   ; qtot 8.358534
  204         c3      8    bbb     C5    204 -0.18457900  12.010000   ; qtot 8.173955
  205          c      8    bbb     C6    205 0.67254400  12.010000   ; qtot 8.846499
  206         c3      8    bbb     C7    206 -0.02083000  12.010000   ; qtot 8.825669
  207         c3      8    bbb     C8    207 -0.03328100  12.010000   ; qtot 8.792388
  208          n      8    bbb     N2    208 -0.33303000  14.010000   ; qtot 8.459358
  209          o      8    bbb     O1    209 -0.52917200  16.000000   ; qtot 7.930186
  210          o      8    bbb     O2    210 -0.52917200  16.000000   ; qtot 7.401014
  211         hx      8    bbb     H1    211 0.11563300   1.008000   ; qtot 7.516647
  212         hx      8    bbb     H2    212 0.11563300   1.008000   ; qtot 7.632280
  213         hx      8    bbb     H3    213 0.11563300   1.008000   ; qtot 7.747913
  214         hx      8    bbb     H4    214 0.11563300   1.008000   ; qtot 7.863546
  215         hc      8    bbb     H5    215 0.08347900   1.008000   ; qtot 7.947025
  216         hc      8    bbb     H6    216 0.08347900   1.008000   ; qtot 8.030504
  217         hc      8    bbb     H7    217 0.08347900   1.008000   ; qtot 8.113983
  218         hc      8    bbb     H8    218 0.08347900   1.008000   ; qtot 8.197462
  219         hx      8    bbb     H9    219 0.07988000   1.008000   ; qtot 8.277342
  220         hx      8    bbb    H10    220 0.07988000   1.008000   ; qtot 8.357222
  221         h1      8    bbb    H11    221 0.10618100   1.008000   ; qtot 8.463403
  222         h1      8    bbb    H12    222 0.10618100   1.008000   ; qtot 8.569584
  223         hn      8    bbb    H13    223 0.25916100   1.008000   ; qtot 8.828745
  224         hn      8    bbb    H25    224 0.17125500   1.008000   ; qtot 9.000000
; residue    9 bbb rtp bbb q 1.0
  225         n4      9    bbb     N1    225 -0.02747900  14.010000   ; qtot 8.972521
  226         c3      9    bbb     C1    226 -0.05097600  12.010000   ; qtot 8.921545
  227         c3      9    bbb     C2    227 -0.05097600  12.010000   ; qtot 8.870569
  228         c3      9    bbb     C3    228 -0.18457900  12.010000   ; qtot 8.685990
  229          c      9    bbb     C4    229 0.67254400  12.010000   ; qtot 9.358534
  230         c3      9    bbb     C5    230 -0.18457900  12.010000   ; qtot 9.173955
  231          c      9    bbb     C6    231 0.67254400  12.010000   ; qtot 9.846499
  232         c3      9    bbb     C7    232 -0.02083000  12.010000   ; qtot 9.825669
  233         c3      9    bbb     C8    233 -0.03328100  12.010000   ; qtot 9.792388
  234          n      9    bbb     N2    234 -0.33303000  14.010000   ; qtot 9.459358
  235          o      9    bbb     O1    235 -0.52917200  16.000000   ; qtot 8.930186
  236          o      9    bbb     O2    236 -0.52917200  16.000000   ; qtot 8.401014
  237         hx      9    bbb     H1    237 0.11563300   1.008000   ; qtot 8.516647
  238         hx      9    bbb     H2    238 0.11563300   1.008000   ; qtot 8.632280
  239         hx      9    bbb     H3    239 0.11563300   1.008000   ; qtot 8.747913
  240         hx      9    bbb     H4    240 0.11563300   1.008000   ; qtot 8.863546
  241         hc      9    bbb     H5    241 0.08347900   1.008000   ; qtot 8.947025
  242         hc      9    bbb     H6    242 0.08347900   1.008000   ; qtot 9.030504
  243         hc      9    bbb     H7    243 0.08347900   1.008000   ; qtot 9.113983
  244         hc      9    bbb     H8    244 0.08347900   1.008000   ; qtot 9.197462
  245         hx      9    bbb     H9    245 0.07988000   1.008000   ; qtot 9.277342
  246         hx      9    bbb    H10    246 0.07988000   1.008000   ; qtot 9.357222
  247         h1      9    bbb    H11    247 0.10618100   1.008000   ; qtot 9.463403
  248         h1      9    bbb    H12    248 0.10618100   1.008000   ; qtot 9.569584
  249         hn      9    bbb    H13    249 0.25916100   1.008000   ; qtot 9.828745
  250         hn      9    bbb    H25    250 0.17125500   1.008000   ; qtot 10.000000
; residue   10 bbb rtp bbb q 1.0
  251         n4     10    bbb     N1    251 -0.02747900  14.010000   ; qtot 9.972521
  252         c3     10    bbb     C1    252 -0.05097600  12.010000   ; qtot 9.921545
  253         c3     10    bbb     C2    253 -0.05097600  12.010000   ; qtot 9.870569
  254         c3     10    bbb     C3    254 -0.18457900  12.010000   ; qtot 9.685990
  255          c     10    bbb     C4    255 0.67254400  12.010000   ; qtot 10.358534
  256         c3     10    bbb     C5    256 -0.18457900  12.010000   ; qtot 10.173955
  257          c     10    bbb     C6    257 0.67254400  12.010000   ; qtot 10.846499
  258         c3     10    bbb     C7    258 -0.02083000  12.010000   ; qtot 10.825669
  259         c3     10    bbb     C8    259 -0.03328100  12.010000   ; qtot 10.792388
  260          n     10    bbb     N2    260 -0.33303000  14.010000   ; qtot 10.459358
  261          o     10    bbb     O1    261 -0.52917200  16.000000   ; qtot 9.930186
  262          o     10    bbb     O2    262 -0.52917200  16.000000   ; qtot 9.401014
  263         hx     10    bbb     H1    263 0.11563300   1.008000   ; qtot 9.516647
  264         hx     10    bbb     H2    264 0.11563300   1.008000   ; qtot 9.632280
  265         hx     10    bbb     H3    265 0.11563300   1.008000   ; qtot 9.747913
  266         hx     10    bbb     H4    266 0.11563300   1.008000   ; qtot 9.863546
  267         hc     10    bbb     H5    267 0.08347900   1.008000   ; qtot 9.947025
  268         hc     10    bbb     H6    268 0.08347900   1.008000   ; qtot 10.030504
  269         hc     10    bbb     H7    269 0.08347900   1.008000   ; qtot 10.113983
  270         hc     10    bbb     H8    270 0.08347900   1.008000   ; qtot 10.197462
  271         hx     10    bbb     H9    271 0.07988000   1.008000   ; qtot 10.277342
  272         hx     10    bbb    H10    272 0.07988000   1.008000   ; qtot 10.357222
  273         h1     10    bbb    H11    273 0.10618100   1.008000   ; qtot 10.463403
  274         h1     10    bbb    H12    274 0.10618100   1.008000   ; qtot 10.569584
  275         hn     10    bbb    H13    275 0.25916100   1.008000   ; qtot 10.828745
  276         hn     10    bbb    H25    276 0.17125500   1.008000   ; qtot 11.000000
; residue   11 bbb rtp bbb q 1.0
  277         n4     11    bbb     N1    277 -0.02747900  14.010000   ; qtot 10.972521
  278         c3     11    bbb     C1    278 -0.05097600  12.010000   ; qtot 10.921545
  279         c3     11    bbb     C2    279 -0.05097600  12.010000   ; qtot 10.870569
  280         c3     11    bbb     C3    280 -0.18457900  12.010000   ; qtot 10.685990
  281          c     11    bbb     C4    281 0.67254400  12.010000   ; qtot 11.358534
  282         c3     11    bbb     C5    282 -0.18457900  12.010000   ; qtot 11.173955
  283          c     11    bbb     C6    283 0.67254400  12.010000   ; qtot 11.846499
  284         c3     11    bbb     C7    284 -0.02083000  12.010000   ; qtot 11.825669
  285         c3     11    bbb     C8    285 -0.03328100  12.010000   ; qtot 11.792388
  286          n     11    bbb     N2    286 -0.33303000  14.010000   ; qtot 11.459358
  287          o     11    bbb     O1    287 -0.52917200  16.000000   ; qtot 10.930186
  288          o     11    bbb     O2    288 -0.52917200  16.000000   ; qtot 10.401014
  289         hx     11    bbb     H1    289 0.11563300   1.008000   ; qtot 10.516647
  290         hx     11    bbb     H2    290 0.11563300   1.008000   ; qtot 10.632280
  291         hx     11    bbb     H3    291 0.11563300   1.008000   ; qtot 10.747913
  292         hx     11    bbb     H4    292 0.11563300   1.008000   ; qtot 10.863546
  293         hc     11    bbb     H5    293 0.08347900   1.008000   ; qtot 10.947025
  294         hc     11    bbb     H6    294 0.08347900   1.008000   ; qtot 11.030504
  295         hc     11    bbb     H7    295 0.08347900   1.008000   ; qtot 11.113983
  296         hc     11    bbb     H8    296 0.08347900   1.008000   ; qtot 11.197462
  297         hx     11    bbb     H9    297 0.07988000   1.008000   ; qtot 11.277342
  298         hx     11    bbb    H10    298 0.07988000   1.008000   ; qtot 11.357222
  299         h1     11    bbb    H11    299 0.10618100   1.008000   ; qtot 11.463403
  300         h1     11    bbb    H12    300 0.10618100   1.008000   ; qtot 11.569584
  301         hn     11    bbb    H13    301 0.25916100   1.008000   ; qtot 11.828745
  302         hn     11    bbb    H25    302 0.17125500   1.008000   ; qtot 12.000000
; residue   12 bbb rtp bbb q 1.0
  303         n4     12    bbb     N1    303 -0.02747900  14.010000   ; qtot 11.972521
  304         c3     12    bbb     C1    304 -0.05097600  12.010000   ; qtot 11.921545
  305         c3     12    bbb     C2    305 -0.05097600  12.010000   ; qtot 11.870569
  306         c3     12    bbb     C3    306 -0.18457900  12.010000   ; qtot 11.685990
  307          c     12    bbb     C4    307 0.67254400  12.010000   ; qtot 12.358534
  308         c3     12    bbb     C5    308 -0.18457900  12.010000   ; qtot 12.173955
  309          c     12    bbb     C6    309 0.67254400  12.010000   ; qtot 12.846499
  310         c3     12    bbb     C7    310 -0.02083000  12.010000   ; qtot 12.825669
  311         c3     12    bbb     C8    311 -0.03328100  12.010000   ; qtot 12.792388
  312          n     12    bbb     N2    312 -0.33303000  14.010000   ; qtot 12.459358
  313          o     12    bbb     O1    313 -0.52917200  16.000000   ; qtot 11.930186
  314          o     12    bbb     O2    314 -0.52917200  16.000000   ; qtot 11.401014
  315         hx     12    bbb     H1    315 0.11563300   1.008000   ; qtot 11.516647
  316         hx     12    bbb     H2    316 0.11563300   1.008000   ; qtot 11.632280
  317         hx     12    bbb     H3    317 0.11563300   1.008000   ; qtot 11.747913
  318         hx     12    bbb     H4    318 0.11563300   1.008000   ; qtot 11.863546
  319         hc     12    bbb     H5    319 0.08347900   1.008000   ; qtot 11.947025
  320         hc     12    bbb     H6    320 0.08347900   1.008000   ; qtot 12.030504
  321         hc     12    bbb     H7    321 0.08347900   1.008000   ; qtot 12.113983
  322         hc     12    bbb     H8    322 0.08347900   1.008000   ; qtot 12.197462
  323         hx     12    bbb     H9    323 0.07988000   1.008000   ; qtot 12.277342
  324         hx     12    bbb    H10    324 0.07988000   1.008000   ; qtot 12.357222
  325         h1     12    bbb    H11    325 0.10618100   1.008000   ; qtot 12.463403
  326         h1     12    bbb    H12    326 0.10618100   1.008000   ; qtot 12.569584
  327         hn     12    bbb    H13    327 0.25916100   1.008000   ; qtot 12.828745
  328         hn     12    bbb    H25    328 0.17125500   1.008000   ; qtot 13.000000
; residue   13 bbb rtp bbb q 1.0
  329         n4     13    bbb     N1    329 -0.02747900  14.010000   ; qtot 12.972521
  330         c3     13    bbb     C1    330 -0.05097600  12.010000   ; qtot 12.921545
  331         c3     13    bbb     C2    331 -0.05097600  12.010000   ; qtot 12.870569
  332         c3     13    bbb     C3    332 -0.18457900  12.010000   ; qtot 12.685990
  333          c     13    bbb     C4    333 0.67254400  12.010000   ; qtot 13.358534
  334         c3     13    bbb     C5    334 -0.18457900  12.010000   ; qtot 13.173955
  335          c     13    bbb     C6    335 0.67254400  12.010000   ; qtot 13.846499
  336         c3     13    bbb     C7    336 -0.02083000  12.010000   ; qtot 13.825669
  337         c3     13    bbb     C8    337 -0.03328100  12.010000   ; qtot 13.792388
  338          n     13    bbb     N2    338 -0.33303000  14.010000   ; qtot 13.459358
  339          o     13    bbb     O1    339 -0.52917200  16.000000   ; qtot 12.930186
  340          o     13    bbb     O2    340 -0.52917200  16.000000   ; qtot 12.401014
  341         hx     13    bbb     H1    341 0.11563300   1.008000   ; qtot 12.516647
  342         hx     13    bbb     H2    342 0.11563300   1.008000   ; qtot 12.632280
  343         hx     13    bbb     H3    343 0.11563300   1.008000   ; qtot 12.747913
  344         hx     13    bbb     H4    344 0.11563300   1.008000   ; qtot 12.863546
  345         hc     13    bbb     H5    345 0.08347900   1.008000   ; qtot 12.947025
  346         hc     13    bbb     H6    346 0.08347900   1.008000   ; qtot 13.030504
  347         hc     13    bbb     H7    347 0.08347900   1.008000   ; qtot 13.113983
  348         hc     13    bbb     H8    348 0.08347900   1.008000   ; qtot 13.197462
  349         hx     13    bbb     H9    349 0.07988000   1.008000   ; qtot 13.277342
  350         hx     13    bbb    H10    350 0.07988000   1.008000   ; qtot 13.357222
  351         h1     13    bbb    H11    351 0.10618100   1.008000   ; qtot 13.463403
  352         h1     13    bbb    H12    352 0.10618100   1.008000   ; qtot 13.569584
  353         hn     13    bbb    H13    353 0.25916100   1.008000   ; qtot 13.828745
  354         hn     13    bbb    H25    354 0.17125500   1.008000   ; qtot 14.000000
; residue   14 ccc rtp ccc q 1.0
  355          n     14    ccc     N1    355 -0.33303000  14.010000   ; qtot 13.666970
  356         hn     14    ccc     H4    356 0.25916100   1.008000   ; qtot 13.926131
  357         c3     14    ccc     C3    357 -0.03328100  12.010000   ; qtot 13.892850
  358         h1     14    ccc     H5    358 0.10618100   1.008000   ; qtot 13.999031
  359         c3     14    ccc     C4    359 -0.02083000  12.010000   ; qtot 13.978201
  360         h1     14    ccc     H6    360 0.10618100   1.008000   ; qtot 14.084382
  361         h1     14    ccc     H7    361 0.07988000   1.008000   ; qtot 14.164262
  362         h1     14    ccc     H8    362 0.07988000   1.008000   ; qtot 14.244142
  363         n4     14    ccc     N2    363 -0.02747900  14.010000   ; qtot 14.216663
  364         c3     14    ccc     C5    364 -0.05097600  12.010000   ; qtot 14.165687
  365         c3     14    ccc     C6    365 -0.05097600  12.010000   ; qtot 14.114711
  366         h1     14    ccc     H9    366 0.11563300   1.008000   ; qtot 14.230344
  367         c3     14    ccc     C7    367 -0.18457900  12.010000   ; qtot 14.045765
  368         h1     14    ccc    H10    368 0.11563300   1.008000   ; qtot 14.161398
  369         hc     14    ccc    H11    369 0.08347900   1.008000   ; qtot 14.244877
  370         hc     14    ccc    H12    370 0.08347900   1.008000   ; qtot 14.328356
  371          c     14    ccc     C8    371 0.67254400  12.010000   ; qtot 15.000900
  372          o     14    ccc     O2    372 -0.52917200  16.000000   ; qtot 14.471728
  373         h1     14    ccc    H13    373 0.11563300   1.008000   ; qtot 14.587361
  374         h1     14    ccc    H14    374 0.11563300   1.008000   ; qtot 14.702994
  375         c3     14    ccc     C9    375 -0.18457900  12.010000   ; qtot 14.518415
  376         hc     14    ccc    H15    376 0.08347900   1.008000   ; qtot 14.601894
  377         hc     14    ccc    H16    377 0.08347900   1.008000   ; qtot 14.685373
  378          c     14    ccc    C10    378 0.67254400  12.010000   ; qtot 15.357917
  379          o     14    ccc     O4    379 -0.52917200  16.000000   ; qtot 14.828745
  380         c3     14    ccc    C11    380 0.08518000  12.010000   ; qtot 14.913925
  381         c3     14    ccc    C12    381 0.07918000  12.010000   ; qtot 14.993105
  382         h1     14    ccc    H17    382 0.06978000   1.008000   ; qtot 15.062885
  383         c3     14    ccc    C13    383 0.07918000  12.010000   ; qtot 15.142065
  384         c3     14    ccc    C14    384 0.03578000  12.010000   ; qtot 15.177845
  385         c3     14    ccc    C15    385 0.33498000  12.010000   ; qtot 15.512825
  386         h1     14    ccc    H18    386 0.06178000   1.008000   ; qtot 15.574605
  387         h1     14    ccc    H19    387 0.11278000   1.008000   ; qtot 15.687385
  388         h2     14    ccc    H20    388 0.12178000   1.008000   ; qtot 15.809165
  389         oh     14    ccc     O1    389 -0.56972000  16.000000   ; qtot 15.239445
  390         oh     14    ccc     O6    390 -0.57772000  16.000000   ; qtot 14.661725
  391         c3     14    ccc    C16    391 0.14548000  12.010000   ; qtot 14.807205
  392         ho     14    ccc    H21    392 0.40508000   1.008000   ; qtot 15.212285
  393         hn     14    ccc    H22    393 0.31758000   1.008000   ; qtot 15.529865
  394         h1     14    ccc    H23    394 0.06278000   1.008000   ; qtot 15.592645
  395         h1     14    ccc    H24    395 0.06278000   1.008000   ; qtot 15.655425
  396         oh     14    ccc     O7    396 -0.59472000  16.000000   ; qtot 15.060705
  397         ho     14    ccc    H25    397 0.41908000   1.008000   ; qtot 15.479785
  398         os     14    ccc     O8    398 -0.44552000  16.000000   ; qtot 15.034265
  399         ho     14    ccc    H26    399 0.41908000   1.008000   ; qtot 15.453345
  400         h1     14    ccc    H27    400 0.08578000   1.008000   ; qtot 15.539125
  401         oh     14    ccc     O9    401 -0.58672000  16.000000   ; qtot 14.952405
  402         ho     14    ccc    H28    402 0.41908000   1.008000   ; qtot 15.371485
  403         n3     14    ccc     N3    403 -0.54282000  14.010000   ; qtot 14.828665
  404         c3     14    ccc    C17    404 0.08518000  12.010000   ; qtot 14.913845
  405         c3     14    ccc    C18    405 0.07918000  12.010000   ; qtot 14.993025
  406         h1     14    ccc    H29    406 0.06978000   1.008000   ; qtot 15.062805
  407         c3     14    ccc    C19    407 0.07918000  12.010000   ; qtot 15.141985
  408         c3     14    ccc    C20    408 0.03578000  12.010000   ; qtot 15.177765
  409         c3     14    ccc    C21    409 0.33498000  12.010000   ; qtot 15.512745
  410         h1     14    ccc    H30    410 0.06178000   1.008000   ; qtot 15.574525
  411         h1     14    ccc    H31    411 0.11278000   1.008000   ; qtot 15.687305
  412         h2     14    ccc    H32    412 0.12178000   1.008000   ; qtot 15.809085
  413         oh     14    ccc    O10    413 -0.56972000  16.000000   ; qtot 15.239365
  414         oh     14    ccc    O11    414 -0.57772000  16.000000   ; qtot 14.661645
  415         c3     14    ccc    C22    415 0.14548000  12.010000   ; qtot 14.807125
  416         ho     14    ccc    H33    416 0.40508000   1.008000   ; qtot 15.212205
  417         hn     14    ccc    H34    417 0.31758000   1.008000   ; qtot 15.529785
  418         h1     14    ccc    H35    418 0.06278000   1.008000   ; qtot 15.592565
  419         h1     14    ccc    H36    419 0.06278000   1.008000   ; qtot 15.655345
  420         oh     14    ccc    O12    420 -0.59472000  16.000000   ; qtot 15.060625
  421         ho     14    ccc    H37    421 0.41908000   1.008000   ; qtot 15.479705
  422         os     14    ccc    O13    422 -0.44552000  16.000000   ; qtot 15.034185
  423         ho     14    ccc    H38    423 0.41908000   1.008000   ; qtot 15.453265
  424         h1     14    ccc    H39    424 0.08578000   1.008000   ; qtot 15.539045
  425         oh     14    ccc     O5    425 -0.58672000  16.000000   ; qtot 14.952325
  426         ho     14    ccc    H40    426 0.41908000   1.008000   ; qtot 15.371405
  427         n3     14    ccc     N4    427 -0.54282000  14.010000   ; qtot 14.828585
  428         hn     14    ccc    H41    428 0.17125500   1.008000   ; qtot 14.999840
; residue   15 ccc rtp ccc q 1.0
  429          n     15    ccc     N1    429 -0.33303000  14.010000   ; qtot 14.666810
  430         hn     15    ccc     H4    430 0.25916100   1.008000   ; qtot 14.925971
  431         c3     15    ccc     C3    431 -0.03328100  12.010000   ; qtot 14.892690
  432         h1     15    ccc     H5    432 0.10618100   1.008000   ; qtot 14.998871
  433         c3     15    ccc     C4    433 -0.02083000  12.010000   ; qtot 14.978041
  434         h1     15    ccc     H6    434 0.10618100   1.008000   ; qtot 15.084222
  435         h1     15    ccc     H7    435 0.07988000   1.008000   ; qtot 15.164102
  436         h1     15    ccc     H8    436 0.07988000   1.008000   ; qtot 15.243982
  437         n4     15    ccc     N2    437 -0.02747900  14.010000   ; qtot 15.216503
  438         c3     15    ccc     C5    438 -0.05097600  12.010000   ; qtot 15.165527
  439         c3     15    ccc     C6    439 -0.05097600  12.010000   ; qtot 15.114551
  440         h1     15    ccc     H9    440 0.11563300   1.008000   ; qtot 15.230184
  441         c3     15    ccc     C7    441 -0.18457900  12.010000   ; qtot 15.045605
  442         h1     15    ccc    H10    442 0.11563300   1.008000   ; qtot 15.161238
  443         hc     15    ccc    H11    443 0.08347900   1.008000   ; qtot 15.244717
  444         hc     15    ccc    H12    444 0.08347900   1.008000   ; qtot 15.328196
  445          c     15    ccc     C8    445 0.67254400  12.010000   ; qtot 16.000740
  446          o     15    ccc     O2    446 -0.52917200  16.000000   ; qtot 15.471568
  447         h1     15    ccc    H13    447 0.11563300   1.008000   ; qtot 15.587201
  448         h1     15    ccc    H14    448 0.11563300   1.008000   ; qtot 15.702834
  449         c3     15    ccc     C9    449 -0.18457900  12.010000   ; qtot 15.518255
  450         hc     15    ccc    H15    450 0.08347900   1.008000   ; qtot 15.601734
  451         hc     15    ccc    H16    451 0.08347900   1.008000   ; qtot 15.685213
  452          c     15    ccc    C10    452 0.67254400  12.010000   ; qtot 16.357757
  453          o     15    ccc     O4    453 -0.52917200  16.000000   ; qtot 15.828585
  454         c3     15    ccc    C11    454 0.08518000  12.010000   ; qtot 15.913765
  455         c3     15    ccc    C12    455 0.07918000  12.010000   ; qtot 15.992945
  456         h1     15    ccc    H17    456 0.06978000   1.008000   ; qtot 16.062725
  457         c3     15    ccc    C13    457 0.07918000  12.010000   ; qtot 16.141905
  458         c3     15    ccc    C14    458 0.03578000  12.010000   ; qtot 16.177685
  459         c3     15    ccc    C15    459 0.33498000  12.010000   ; qtot 16.512665
  460         h1     15    ccc    H18    460 0.06178000   1.008000   ; qtot 16.574445
  461         h1     15    ccc    H19    461 0.11278000   1.008000   ; qtot 16.687225
  462         h2     15    ccc    H20    462 0.12178000   1.008000   ; qtot 16.809005
  463         oh     15    ccc     O1    463 -0.56972000  16.000000   ; qtot 16.239285
  464         oh     15    ccc     O6    464 -0.57772000  16.000000   ; qtot 15.661565
  465         c3     15    ccc    C16    465 0.14548000  12.010000   ; qtot 15.807045
  466         ho     15    ccc    H21    466 0.40508000   1.008000   ; qtot 16.212125
  467         hn     15    ccc    H22    467 0.31758000   1.008000   ; qtot 16.529705
  468         h1     15    ccc    H23    468 0.06278000   1.008000   ; qtot 16.592485
  469         h1     15    ccc    H24    469 0.06278000   1.008000   ; qtot 16.655265
  470         oh     15    ccc     O7    470 -0.59472000  16.000000   ; qtot 16.060545
  471         ho     15    ccc    H25    471 0.41908000   1.008000   ; qtot 16.479625
  472         os     15    ccc     O8    472 -0.44552000  16.000000   ; qtot 16.034105
  473         ho     15    ccc    H26    473 0.41908000   1.008000   ; qtot 16.453185
  474         h1     15    ccc    H27    474 0.08578000   1.008000   ; qtot 16.538965
  475         oh     15    ccc     O9    475 -0.58672000  16.000000   ; qtot 15.952245
  476         ho     15    ccc    H28    476 0.41908000   1.008000   ; qtot 16.371325
  477         n3     15    ccc     N3    477 -0.54282000  14.010000   ; qtot 15.828505
  478         c3     15    ccc    C17    478 0.08518000  12.010000   ; qtot 15.913685
  479         c3     15    ccc    C18    479 0.07918000  12.010000   ; qtot 15.992865
  480         h1     15    ccc    H29    480 0.06978000   1.008000   ; qtot 16.062645
  481         c3     15    ccc    C19    481 0.07918000  12.010000   ; qtot 16.141825
  482         c3     15    ccc    C20    482 0.03578000  12.010000   ; qtot 16.177605
  483         c3     15    ccc    C21    483 0.33498000  12.010000   ; qtot 16.512585
  484         h1     15    ccc    H30    484 0.06178000   1.008000   ; qtot 16.574365
  485         h1     15    ccc    H31    485 0.11278000   1.008000   ; qtot 16.687145
  486         h2     15    ccc    H32    486 0.12178000   1.008000   ; qtot 16.808925
  487         oh     15    ccc    O10    487 -0.56972000  16.000000   ; qtot 16.239205
  488         oh     15    ccc    O11    488 -0.57772000  16.000000   ; qtot 15.661485
  489         c3     15    ccc    C22    489 0.14548000  12.010000   ; qtot 15.806965
  490         ho     15    ccc    H33    490 0.40508000   1.008000   ; qtot 16.212045
  491         hn     15    ccc    H34    491 0.31758000   1.008000   ; qtot 16.529625
  492         h1     15    ccc    H35    492 0.06278000   1.008000   ; qtot 16.592405
  493         h1     15    ccc    H36    493 0.06278000   1.008000   ; qtot 16.655185
  494         oh     15    ccc    O12    494 -0.59472000  16.000000   ; qtot 16.060465
  495         ho     15    ccc    H37    495 0.41908000   1.008000   ; qtot 16.479545
  496         os     15    ccc    O13    496 -0.44552000  16.000000   ; qtot 16.034025
  497         ho     15    ccc    H38    497 0.41908000   1.008000   ; qtot 16.453105
  498         h1     15    ccc    H39    498 0.08578000   1.008000   ; qtot 16.538885
  499         oh     15    ccc     O5    499 -0.58672000  16.000000   ; qtot 15.952165
  500         ho     15    ccc    H40    500 0.41908000   1.008000   ; qtot 16.371245
  501         n3     15    ccc     N4    501 -0.54282000  14.010000   ; qtot 15.828425
  502         hn     15    ccc    H41    502 0.17125500   1.008000   ; qtot 15.999680
; residue   16 ccc rtp ccc q 1.0
  503          n     16    ccc     N1    503 -0.33303000  14.010000   ; qtot 15.666650
  504         hn     16    ccc     H4    504 0.25916100   1.008000   ; qtot 15.925811
  505         c3     16    ccc     C3    505 -0.03328100  12.010000   ; qtot 15.892530
  506         h1     16    ccc     H5    506 0.10618100   1.008000   ; qtot 15.998711
  507         c3     16    ccc     C4    507 -0.02083000  12.010000   ; qtot 15.977881
  508         h1     16    ccc     H6    508 0.10618100   1.008000   ; qtot 16.084062
  509         h1     16    ccc     H7    509 0.07988000   1.008000   ; qtot 16.163942
  510         h1     16    ccc     H8    510 0.07988000   1.008000   ; qtot 16.243822
  511         n4     16    ccc     N2    511 -0.02747900  14.010000   ; qtot 16.216343
  512         c3     16    ccc     C5    512 -0.05097600  12.010000   ; qtot 16.165367
  513         c3     16    ccc     C6    513 -0.05097600  12.010000   ; qtot 16.114391
  514         h1     16    ccc     H9    514 0.11563300   1.008000   ; qtot 16.230024
  515         c3     16    ccc     C7    515 -0.18457900  12.010000   ; qtot 16.045445
  516         h1     16    ccc    H10    516 0.11563300   1.008000   ; qtot 16.161078
  517         hc     16    ccc    H11    517 0.08347900   1.008000   ; qtot 16.244557
  518         hc     16    ccc    H12    518 0.08347900   1.008000   ; qtot 16.328036
  519          c     16    ccc     C8    519 0.67254400  12.010000   ; qtot 17.000580
  520          o     16    ccc     O2    520 -0.52917200  16.000000   ; qtot 16.471408
  521         h1     16    ccc    H13    521 0.11563300   1.008000   ; qtot 16.587041
  522         h1     16    ccc    H14    522 0.11563300   1.008000   ; qtot 16.702674
  523         c3     16    ccc     C9    523 -0.18457900  12.010000   ; qtot 16.518095
  524         hc     16    ccc    H15    524 0.08347900   1.008000   ; qtot 16.601574
  525         hc     16    ccc    H16    525 0.08347900   1.008000   ; qtot 16.685053
  526          c     16    ccc    C10    526 0.67254400  12.010000   ; qtot 17.357597
  527          o     16    ccc     O4    527 -0.52917200  16.000000   ; qtot 16.828425
  528         c3     16    ccc    C11    528 0.08518000  12.010000   ; qtot 16.913605
  529         c3     16    ccc    C12    529 0.07918000  12.010000   ; qtot 16.992785
  530         h1     16    ccc    H17    530 0.06978000   1.008000   ; qtot 17.062565
  531         c3     16    ccc    C13    531 0.07918000  12.010000   ; qtot 17.141745
  532         c3     16    ccc    C14    532 0.03578000  12.010000   ; qtot 17.177525
  533         c3     16    ccc    C15    533 0.33498000  12.010000   ; qtot 17.512505
  534         h1     16    ccc    H18    534 0.06178000   1.008000   ; qtot 17.574285
  535         h1     16    ccc    H19    535 0.11278000   1.008000   ; qtot 17.687065
  536         h2     16    ccc    H20    536 0.12178000   1.008000   ; qtot 17.808845
  537         oh     16    ccc     O1    537 -0.56972000  16.000000   ; qtot 17.239125
  538         oh     16    ccc     O6    538 -0.57772000  16.000000   ; qtot 16.661405
  539         c3     16    ccc    C16    539 0.14548000  12.010000   ; qtot 16.806885
  540         ho     16    ccc    H21    540 0.40508000   1.008000   ; qtot 17.211965
  541         hn     16    ccc    H22    541 0.31758000   1.008000   ; qtot 17.529545
  542         h1     16    ccc    H23    542 0.06278000   1.008000   ; qtot 17.592325
  543         h1     16    ccc    H24    543 0.06278000   1.008000   ; qtot 17.655105
  544         oh     16    ccc     O7    544 -0.59472000  16.000000   ; qtot 17.060385
  545         ho     16    ccc    H25    545 0.41908000   1.008000   ; qtot 17.479465
  546         os     16    ccc     O8    546 -0.44552000  16.000000   ; qtot 17.033945
  547         ho     16    ccc    H26    547 0.41908000   1.008000   ; qtot 17.453025
  548         h1     16    ccc    H27    548 0.08578000   1.008000   ; qtot 17.538805
  549         oh     16    ccc     O9    549 -0.58672000  16.000000   ; qtot 16.952085
  550         ho     16    ccc    H28    550 0.41908000   1.008000   ; qtot 17.371165
  551         n3     16    ccc     N3    551 -0.54282000  14.010000   ; qtot 16.828345
  552         c3     16    ccc    C17    552 0.08518000  12.010000   ; qtot 16.913525
  553         c3     16    ccc    C18    553 0.07918000  12.010000   ; qtot 16.992705
  554         h1     16    ccc    H29    554 0.06978000   1.008000   ; qtot 17.062485
  555         c3     16    ccc    C19    555 0.07918000  12.010000   ; qtot 17.141665
  556         c3     16    ccc    C20    556 0.03578000  12.010000   ; qtot 17.177445
  557         c3     16    ccc    C21    557 0.33498000  12.010000   ; qtot 17.512425
  558         h1     16    ccc    H30    558 0.06178000   1.008000   ; qtot 17.574205
  559         h1     16    ccc    H31    559 0.11278000   1.008000   ; qtot 17.686985
  560         h2     16    ccc    H32    560 0.12178000   1.008000   ; qtot 17.808765
  561         oh     16    ccc    O10    561 -0.56972000  16.000000   ; qtot 17.239045
  562         oh     16    ccc    O11    562 -0.57772000  16.000000   ; qtot 16.661325
  563         c3     16    ccc    C22    563 0.14548000  12.010000   ; qtot 16.806805
  564         ho     16    ccc    H33    564 0.40508000   1.008000   ; qtot 17.211885
  565         hn     16    ccc    H34    565 0.31758000   1.008000   ; qtot 17.529465
  566         h1     16    ccc    H35    566 0.06278000   1.008000   ; qtot 17.592245
  567         h1     16    ccc    H36    567 0.06278000   1.008000   ; qtot 17.655025
  568         oh     16    ccc    O12    568 -0.59472000  16.000000   ; qtot 17.060305
  569         ho     16    ccc    H37    569 0.41908000   1.008000   ; qtot 17.479385
  570         os     16    ccc    O13    570 -0.44552000  16.000000   ; qtot 17.033865
  571         ho     16    ccc    H38    571 0.41908000   1.008000   ; qtot 17.452945
  572         h1     16    ccc    H39    572 0.08578000   1.008000   ; qtot 17.538725
  573         oh     16    ccc     O5    573 -0.58672000  16.000000   ; qtot 16.952005
  574         ho     16    ccc    H40    574 0.41908000   1.008000   ; qtot 17.371085
  575         n3     16    ccc     N4    575 -0.54282000  14.010000   ; qtot 16.828265
  576         hn     16    ccc    H41    576 0.17125500   1.008000   ; qtot 16.999520
; residue   17 ccc rtp ccc q 1.0
  577          n     17    ccc     N1    577 -0.33303000  14.010000   ; qtot 16.666490
  578         hn     17    ccc     H4    578 0.25916100   1.008000   ; qtot 16.925651
  579         c3     17    ccc     C3    579 -0.03328100  12.010000   ; qtot 16.892370
  580         h1     17    ccc     H5    580 0.10618100   1.008000   ; qtot 16.998551
  581         c3     17    ccc     C4    581 -0.02083000  12.010000   ; qtot 16.977721
  582         h1     17    ccc     H6    582 0.10618100   1.008000   ; qtot 17.083902
  583         h1     17    ccc     H7    583 0.07988000   1.008000   ; qtot 17.163782
  584         h1     17    ccc     H8    584 0.07988000   1.008000   ; qtot 17.243662
  585         n4     17    ccc     N2    585 -0.02747900  14.010000   ; qtot 17.216183
  586         c3     17    ccc     C5    586 -0.05097600  12.010000   ; qtot 17.165207
  587         c3     17    ccc     C6    587 -0.05097600  12.010000   ; qtot 17.114231
  588         h1     17    ccc     H9    588 0.11563300   1.008000   ; qtot 17.229864
  589         c3     17    ccc     C7    589 -0.18457900  12.010000   ; qtot 17.045285
  590         h1     17    ccc    H10    590 0.11563300   1.008000   ; qtot 17.160918
  591         hc     17    ccc    H11    591 0.08347900   1.008000   ; qtot 17.244397
  592         hc     17    ccc    H12    592 0.08347900   1.008000   ; qtot 17.327876
  593          c     17    ccc     C8    593 0.67254400  12.010000   ; qtot 18.000420
  594          o     17    ccc     O2    594 -0.52917200  16.000000   ; qtot 17.471248
  595         h1     17    ccc    H13    595 0.11563300   1.008000   ; qtot 17.586881
  596         h1     17    ccc    H14    596 0.11563300   1.008000   ; qtot 17.702514
  597         c3     17    ccc     C9    597 -0.18457900  12.010000   ; qtot 17.517935
  598         hc     17    ccc    H15    598 0.08347900   1.008000   ; qtot 17.601414
  599         hc     17    ccc    H16    599 0.08347900   1.008000   ; qtot 17.684893
  600          c     17    ccc    C10    600 0.67254400  12.010000   ; qtot 18.357437
  601          o     17    ccc     O4    601 -0.52917200  16.000000   ; qtot 17.828265
  602         c3     17    ccc    C11    602 0.08518000  12.010000   ; qtot 17.913445
  603         c3     17    ccc    C12    603 0.07918000  12.010000   ; qtot 17.992625
  604         h1     17    ccc    H17    604 0.06978000   1.008000   ; qtot 18.062405
  605         c3     17    ccc    C13    605 0.07918000  12.010000   ; qtot 18.141585
  606         c3     17    ccc    C14    606 0.03578000  12.010000   ; qtot 18.177365
  607         c3     17    ccc    C15    607 0.33498000  12.010000   ; qtot 18.512345
  608         h1     17    ccc    H18    608 0.06178000   1.008000   ; qtot 18.574125
  609         h1     17    ccc    H19    609 0.11278000   1.008000   ; qtot 18.686905
  610         h2     17    ccc    H20    610 0.12178000   1.008000   ; qtot 18.808685
  611         oh     17    ccc     O1    611 -0.56972000  16.000000   ; qtot 18.238965
  612         oh     17    ccc     O6    612 -0.57772000  16.000000   ; qtot 17.661245
  613         c3     17    ccc    C16    613 0.14548000  12.010000   ; qtot 17.806725
  614         ho     17    ccc    H21    614 0.40508000   1.008000   ; qtot 18.211805
  615         hn     17    ccc    H22    615 0.31758000   1.008000   ; qtot 18.529385
  616         h1     17    ccc    H23    616 0.06278000   1.008000   ; qtot 18.592165
  617         h1     17    ccc    H24    617 0.06278000   1.008000   ; qtot 18.654945
  618         oh     17    ccc     O7    618 -0.59472000  16.000000   ; qtot 18.060225
  619         ho     17    ccc    H25    619 0.41908000   1.008000   ; qtot 18.479305
  620         os     17    ccc     O8    620 -0.44552000  16.000000   ; qtot 18.033785
  621         ho     17    ccc    H26    621 0.41908000   1.008000   ; qtot 18.452865
  622         h1     17    ccc    H27    622 0.08578000   1.008000   ; qtot 18.538645
  623         oh     17    ccc     O9    623 -0.58672000  16.000000   ; qtot 17.951925
  624         ho     17    ccc    H28    624 0.41908000   1.008000   ; qtot 18.371005
  625         n3     17    ccc     N3    625 -0.54282000  14.010000   ; qtot 17.828185
  626         c3     17    ccc    C17    626 0.08518000  12.010000   ; qtot 17.913365
  627         c3     17    ccc    C18    627 0.07918000  12.010000   ; qtot 17.992545
  628         h1     17    ccc    H29    628 0.06978000   1.008000   ; qtot 18.062325
  629         c3     17    ccc    C19    629 0.07918000  12.010000   ; qtot 18.141505
  630         c3     17    ccc    C20    630 0.03578000  12.010000   ; qtot 18.177285
  631         c3     17    ccc    C21    631 0.33498000  12.010000   ; qtot 18.512265
  632         h1     17    ccc    H30    632 0.06178000   1.008000   ; qtot 18.574045
  633         h1     17    ccc    H31    633 0.11278000   1.008000   ; qtot 18.686825
  634         h2     17    ccc    H32    634 0.12178000   1.008000   ; qtot 18.808605
  635         oh     17    ccc    O10    635 -0.56972000  16.000000   ; qtot 18.238885
  636         oh     17    ccc    O11    636 -0.57772000  16.000000   ; qtot 17.661165
  637         c3     17    ccc    C22    637 0.14548000  12.010000   ; qtot 17.806645
  638         ho     17    ccc    H33    638 0.40508000   1.008000   ; qtot 18.211725
  639         hn     17    ccc    H34    639 0.31758000   1.008000   ; qtot 18.529305
  640         h1     17    ccc    H35    640 0.06278000   1.008000   ; qtot 18.592085
  641         h1     17    ccc    H36    641 0.06278000   1.008000   ; qtot 18.654865
  642         oh     17    ccc    O12    642 -0.59472000  16.000000   ; qtot 18.060145
  643         ho     17    ccc    H37    643 0.41908000   1.008000   ; qtot 18.479225
  644         os     17    ccc    O13    644 -0.44552000  16.000000   ; qtot 18.033705
  645         ho     17    ccc    H38    645 0.41908000   1.008000   ; qtot 18.452785
  646         h1     17    ccc    H39    646 0.08578000   1.008000   ; qtot 18.538565
  647         oh     17    ccc     O5    647 -0.58672000  16.000000   ; qtot 17.951845
  648         ho     17    ccc    H40    648 0.41908000   1.008000   ; qtot 18.370925
  649         n3     17    ccc     N4    649 -0.54282000  14.010000   ; qtot 17.828105
  650         hn     17    ccc    H41    650 0.17125500   1.008000   ; qtot 17.999360
; residue   18 ccc rtp ccc q 1.0
  651          n     18    ccc     N1    651 -0.33303000  14.010000   ; qtot 17.666330
  652         hn     18    ccc     H4    652 0.25916100   1.008000   ; qtot 17.925491
  653         c3     18    ccc     C3    653 -0.03328100  12.010000   ; qtot 17.892210
  654         h1     18    ccc     H5    654 0.10618100   1.008000   ; qtot 17.998391
  655         c3     18    ccc     C4    655 -0.02083000  12.010000   ; qtot 17.977561
  656         h1     18    ccc     H6    656 0.10618100   1.008000   ; qtot 18.083742
  657         h1     18    ccc     H7    657 0.07988000   1.008000   ; qtot 18.163622
  658         h1     18    ccc     H8    658 0.07988000   1.008000   ; qtot 18.243502
  659         n4     18    ccc     N2    659 -0.02747900  14.010000   ; qtot 18.216023
  660         c3     18    ccc     C5    660 -0.05097600  12.010000   ; qtot 18.165047
  661         c3     18    ccc     C6    661 -0.05097600  12.010000   ; qtot 18.114071
  662         h1     18    ccc     H9    662 0.11563300   1.008000   ; qtot 18.229704
  663         c3     18    ccc     C7    663 -0.18457900  12.010000   ; qtot 18.045125
  664         h1     18    ccc    H10    664 0.11563300   1.008000   ; qtot 18.160758
  665         hc     18    ccc    H11    665 0.08347900   1.008000   ; qtot 18.244237
  666         hc     18    ccc    H12    666 0.08347900   1.008000   ; qtot 18.327716
  667          c     18    ccc     C8    667 0.67254400  12.010000   ; qtot 19.000260
  668          o     18    ccc     O2    668 -0.52917200  16.000000   ; qtot 18.471088
  669         h1     18    ccc    H13    669 0.11563300   1.008000   ; qtot 18.586721
  670         h1     18    ccc    H14    670 0.11563300   1.008000   ; qtot 18.702354
  671         c3     18    ccc     C9    671 -0.18457900  12.010000   ; qtot 18.517775
  672         hc     18    ccc    H15    672 0.08347900   1.008000   ; qtot 18.601254
  673         hc     18    ccc    H16    673 0.08347900   1.008000   ; qtot 18.684733
  674          c     18    ccc    C10    674 0.67254400  12.010000   ; qtot 19.357277
  675          o     18    ccc     O4    675 -0.52917200  16.000000   ; qtot 18.828105
  676         c3     18    ccc    C11    676 0.08518000  12.010000   ; qtot 18.913285
  677         c3     18    ccc    C12    677 0.07918000  12.010000   ; qtot 18.992465
  678         h1     18    ccc    H17    678 0.06978000   1.008000   ; qtot 19.062245
  679         c3     18    ccc    C13    679 0.07918000  12.010000   ; qtot 19.141425
  680         c3     18    ccc    C14    680 0.03578000  12.010000   ; qtot 19.177205
  681         c3     18    ccc    C15    681 0.33498000  12.010000   ; qtot 19.512185
  682         h1     18    ccc    H18    682 0.06178000   1.008000   ; qtot 19.573965
  683         h1     18    ccc    H19    683 0.11278000   1.008000   ; qtot 19.686745
  684         h2     18    ccc    H20    684 0.12178000   1.008000   ; qtot 19.808525
  685         oh     18    ccc     O1    685 -0.56972000  16.000000   ; qtot 19.238805
  686         oh     18    ccc     O6    686 -0.57772000  16.000000   ; qtot 18.661085
  687         c3     18    ccc    C16    687 0.14548000  12.010000   ; qtot 18.806565
  688         ho     18    ccc    H21    688 0.40508000   1.008000   ; qtot 19.211645
  689         hn     18    ccc    H22    689 0.31758000   1.008000   ; qtot 19.529225
  690         h1     18    ccc    H23    690 0.06278000   1.008000   ; qtot 19.592005
  691         h1     18    ccc    H24    691 0.06278000   1.008000   ; qtot 19.654785
  692         oh     18    ccc     O7    692 -0.59472000  16.000000   ; qtot 19.060065
  693         ho     18    ccc    H25    693 0.41908000   1.008000   ; qtot 19.479145
  694         os     18    ccc     O8    694 -0.44552000  16.000000   ; qtot 19.033625
  695         ho     18    ccc    H26    695 0.41908000   1.008000   ; qtot 19.452705
  696         h1     18    ccc    H27    696 0.08578000   1.008000   ; qtot 19.538485
  697         oh     18    ccc     O9    697 -0.58672000  16.000000   ; qtot 18.951765
  698         ho     18    ccc    H28    698 0.41908000   1.008000   ; qtot 19.370845
  699         n3     18    ccc     N3    699 -0.54282000  14.010000   ; qtot 18.828025
  700         c3     18    ccc    C17    700 0.08518000  12.010000   ; qtot 18.913205
  701         c3     18    ccc    C18    701 0.07918000  12.010000   ; qtot 18.992385
  702         h1     18    ccc    H29    702 0.06978000   1.008000   ; qtot 19.062165
  703         c3     18    ccc    C19    703 0.07918000  12.010000   ; qtot 19.141345
  704         c3     18    ccc    C20    704 0.03578000  12.010000   ; qtot 19.177125
  705         c3     18    ccc    C21    705 0.33498000  12.010000   ; qtot 19.512105
  706         h1     18    ccc    H30    706 0.06178000   1.008000   ; qtot 19.573885
  707         h1     18    ccc    H31    707 0.11278000   1.008000   ; qtot 19.686665
  708         h2     18    ccc    H32    708 0.12178000   1.008000   ; qtot 19.808445
  709         oh     18    ccc    O10    709 -0.56972000  16.000000   ; qtot 19.238725
  710         oh     18    ccc    O11    710 -0.57772000  16.000000   ; qtot 18.661005
  711         c3     18    ccc    C22    711 0.14548000  12.010000   ; qtot 18.806485
  712         ho     18    ccc    H33    712 0.40508000   1.008000   ; qtot 19.211565
  713         hn     18    ccc    H34    713 0.31758000   1.008000   ; qtot 19.529145
  714         h1     18    ccc    H35    714 0.06278000   1.008000   ; qtot 19.591925
  715         h1     18    ccc    H36    715 0.06278000   1.008000   ; qtot 19.654705
  716         oh     18    ccc    O12    716 -0.59472000  16.000000   ; qtot 19.059985
  717         ho     18    ccc    H37    717 0.41908000   1.008000   ; qtot 19.479065
  718         os     18    ccc    O13    718 -0.44552000  16.000000   ; qtot 19.033545
  719         ho     18    ccc    H38    719 0.41908000   1.008000   ; qtot 19.452625
  720         h1     18    ccc    H39    720 0.08578000   1.008000   ; qtot 19.538405
  721         oh     18    ccc     O5    721 -0.58672000  16.000000   ; qtot 18.951685
  722         ho     18    ccc    H40    722 0.41908000   1.008000   ; qtot 19.370765
  723         n3     18    ccc     N4    723 -0.54282000  14.010000   ; qtot 18.827945
  724         hn     18    ccc    H41    724 0.17125500   1.008000   ; qtot 18.999200
; residue   19 ccc rtp ccc q 1.0
  725          n     19    ccc     N1    725 -0.33303000  14.010000   ; qtot 18.666170
  726         hn     19    ccc     H4    726 0.25916100   1.008000   ; qtot 18.925331
  727         c3     19    ccc     C3    727 -0.03328100  12.010000   ; qtot 18.892050
  728         h1     19    ccc     H5    728 0.10618100   1.008000   ; qtot 18.998231
  729         c3     19    ccc     C4    729 -0.02083000  12.010000   ; qtot 18.977401
  730         h1     19    ccc     H6    730 0.10618100   1.008000   ; qtot 19.083582
  731         h1     19    ccc     H7    731 0.07988000   1.008000   ; qtot 19.163462
  732         h1     19    ccc     H8    732 0.07988000   1.008000   ; qtot 19.243342
  733         n4     19    ccc     N2    733 -0.02747900  14.010000   ; qtot 19.215863
  734         c3     19    ccc     C5    734 -0.05097600  12.010000   ; qtot 19.164887
  735         c3     19    ccc     C6    735 -0.05097600  12.010000   ; qtot 19.113911
  736         h1     19    ccc     H9    736 0.11563300   1.008000   ; qtot 19.229544
  737         c3     19    ccc     C7    737 -0.18457900  12.010000   ; qtot 19.044965
  738         h1     19    ccc    H10    738 0.11563300   1.008000   ; qtot 19.160598
  739         hc     19    ccc    H11    739 0.08347900   1.008000   ; qtot 19.244077
  740         hc     19    ccc    H12    740 0.08347900   1.008000   ; qtot 19.327556
  741          c     19    ccc     C8    741 0.67254400  12.010000   ; qtot 20.000100
  742          o     19    ccc     O2    742 -0.52917200  16.000000   ; qtot 19.470928
  743         h1     19    ccc    H13    743 0.11563300   1.008000   ; qtot 19.586561
  744         h1     19    ccc    H14    744 0.11563300   1.008000   ; qtot 19.702194
  745         c3     19    ccc     C9    745 -0.18457900  12.010000   ; qtot 19.517615
  746         hc     19    ccc    H15    746 0.08347900   1.008000   ; qtot 19.601094
  747         hc     19    ccc    H16    747 0.08347900   1.008000   ; qtot 19.684573
  748          c     19    ccc    C10    748 0.67254400  12.010000   ; qtot 20.357117
  749          o     19    ccc     O4    749 -0.52917200  16.000000   ; qtot 19.827945
  750         c3     19    ccc    C11    750 0.08518000  12.010000   ; qtot 19.913125
  751         c3     19    ccc    C12    751 0.07918000  12.010000   ; qtot 19.992305
  752         h1     19    ccc    H17    752 0.06978000   1.008000   ; qtot 20.062085
  753         c3     19    ccc    C13    753 0.07918000  12.010000   ; qtot 20.141265
  754         c3     19    ccc    C14    754 0.03578000  12.010000   ; qtot 20.177045
  755         c3     19    ccc    C15    755 0.33498000  12.010000   ; qtot 20.512025
  756         h1     19    ccc    H18    756 0.06178000   1.008000   ; qtot 20.573805
  757         h1     19    ccc    H19    757 0.11278000   1.008000   ; qtot 20.686585
  758         h2     19    ccc    H20    758 0.12178000   1.008000   ; qtot 20.808365
  759         oh     19    ccc     O1    759 -0.56972000  16.000000   ; qtot 20.238645
  760         oh     19    ccc     O6    760 -0.57772000  16.000000   ; qtot 19.660925
  761         c3     19    ccc    C16    761 0.14548000  12.010000   ; qtot 19.806405
  762         ho     19    ccc    H21    762 0.40508000   1.008000   ; qtot 20.211485
  763         hn     19    ccc    H22    763 0.31758000   1.008000   ; qtot 20.529065
  764         h1     19    ccc    H23    764 0.06278000   1.008000   ; qtot 20.591845
  765         h1     19    ccc    H24    765 0.06278000   1.008000   ; qtot 20.654625
  766         oh     19    ccc     O7    766 -0.59472000  16.000000   ; qtot 20.059905
  767         ho     19    ccc    H25    767 0.41908000   1.008000   ; qtot 20.478985
  768         os     19    ccc     O8    768 -0.44552000  16.000000   ; qtot 20.033465
  769         ho     19    ccc    H26    769 0.41908000   1.008000   ; qtot 20.452545
  770         h1     19    ccc    H27    770 0.08578000   1.008000   ; qtot 20.538325
  771         oh     19    ccc     O9    771 -0.58672000  16.000000   ; qtot 19.951605
  772         ho     19    ccc    H28    772 0.41908000   1.008000   ; qtot 20.370685
  773         n3     19    ccc     N3    773 -0.54282000  14.010000   ; qtot 19.827865
  774         c3     19    ccc    C17    774 0.08518000  12.010000   ; qtot 19.913045
  775         c3     19    ccc    C18    775 0.07918000  12.010000   ; qtot 19.992225
  776         h1     19    ccc    H29    776 0.06978000   1.008000   ; qtot 20.062005
  777         c3     19    ccc    C19    777 0.07918000  12.010000   ; qtot 20.141185
  778         c3     19    ccc    C20    778 0.03578000  12.010000   ; qtot 20.176965
  779         c3     19    ccc    C21    779 0.33498000  12.010000   ; qtot 20.511945
  780         h1     19    ccc    H30    780 0.06178000   1.008000   ; qtot 20.573725
  781         h1     19    ccc    H31    781 0.11278000   1.008000   ; qtot 20.686505
  782         h2     19    ccc    H32    782 0.12178000   1.008000   ; qtot 20.808285
  783         oh     19    ccc    O10    783 -0.56972000  16.000000   ; qtot 20.238565
  784         oh     19    ccc    O11    784 -0.57772000  16.000000   ; qtot 19.660845
  785         c3     19    ccc    C22    785 0.14548000  12.010000   ; qtot 19.806325
  786         ho     19    ccc    H33    786 0.40508000   1.008000   ; qtot 20.211405
  787         hn     19    ccc    H34    787 0.31758000   1.008000   ; qtot 20.528985
  788         h1     19    ccc    H35    788 0.06278000   1.008000   ; qtot 20.591765
  789         h1     19    ccc    H36    789 0.06278000   1.008000   ; qtot 20.654545
  790         oh     19    ccc    O12    790 -0.59472000  16.000000   ; qtot 20.059825
  791         ho     19    ccc    H37    791 0.41908000   1.008000   ; qtot 20.478905
  792         os     19    ccc    O13    792 -0.44552000  16.000000   ; qtot 20.033385
  793         ho     19    ccc    H38    793 0.41908000   1.008000   ; qtot 20.452465
  794         h1     19    ccc    H39    794 0.08578000   1.008000   ; qtot 20.538245
  795         oh     19    ccc     O5    795 -0.58672000  16.000000   ; qtot 19.951525
  796         ho     19    ccc    H40    796 0.41908000   1.008000   ; qtot 20.370605
  797         n3     19    ccc     N4    797 -0.54282000  14.010000   ; qtot 19.827785
  798         hn     19    ccc    H41    798 0.17125500   1.008000   ; qtot 19.999040
; residue   20 ccc rtp ccc q 1.0
  799          n     20    ccc     N1    799 -0.33303000  14.010000   ; qtot 19.666010
  800         hn     20    ccc     H4    800 0.25916100   1.008000   ; qtot 19.925171
  801         c3     20    ccc     C3    801 -0.03328100  12.010000   ; qtot 19.891890
  802         h1     20    ccc     H5    802 0.10618100   1.008000   ; qtot 19.998071
  803         c3     20    ccc     C4    803 -0.02083000  12.010000   ; qtot 19.977241
  804         h1     20    ccc     H6    804 0.10618100   1.008000   ; qtot 20.083422
  805         h1     20    ccc     H7    805 0.07988000   1.008000   ; qtot 20.163302
  806         h1     20    ccc     H8    806 0.07988000   1.008000   ; qtot 20.243182
  807         n4     20    ccc     N2    807 -0.02747900  14.010000   ; qtot 20.215703
  808         c3     20    ccc     C5    808 -0.05097600  12.010000   ; qtot 20.164727
  809         c3     20    ccc     C6    809 -0.05097600  12.010000   ; qtot 20.113751
  810         h1     20    ccc     H9    810 0.11563300   1.008000   ; qtot 20.229384
  811         c3     20    ccc     C7    811 -0.18457900  12.010000   ; qtot 20.044805
  812         h1     20    ccc    H10    812 0.11563300   1.008000   ; qtot 20.160438
  813         hc     20    ccc    H11    813 0.08347900   1.008000   ; qtot 20.243917
  814         hc     20    ccc    H12    814 0.08347900   1.008000   ; qtot 20.327396
  815          c     20    ccc     C8    815 0.67254400  12.010000   ; qtot 20.999940
  816          o     20    ccc     O2    816 -0.52917200  16.000000   ; qtot 20.470768
  817         h1     20    ccc    H13    817 0.11563300   1.008000   ; qtot 20.586401
  818         h1     20    ccc    H14    818 0.11563300   1.008000   ; qtot 20.702034
  819         c3     20    ccc     C9    819 -0.18457900  12.010000   ; qtot 20.517455
  820         hc     20    ccc    H15    820 0.08347900   1.008000   ; qtot 20.600934
  821         hc     20    ccc    H16    821 0.08347900   1.008000   ; qtot 20.684413
  822          c     20    ccc    C10    822 0.67254400  12.010000   ; qtot 21.356957
  823          o     20    ccc     O4    823 -0.52917200  16.000000   ; qtot 20.827785
  824         c3     20    ccc    C11    824 0.08518000  12.010000   ; qtot 20.912965
  825         c3     20    ccc    C12    825 0.07918000  12.010000   ; qtot 20.992145
  826         h1     20    ccc    H17    826 0.06978000   1.008000   ; qtot 21.061925
  827         c3     20    ccc    C13    827 0.07918000  12.010000   ; qtot 21.141105
  828         c3     20    ccc    C14    828 0.03578000  12.010000   ; qtot 21.176885
  829         c3     20    ccc    C15    829 0.33498000  12.010000   ; qtot 21.511865
  830         h1     20    ccc    H18    830 0.06178000   1.008000   ; qtot 21.573645
  831         h1     20    ccc    H19    831 0.11278000   1.008000   ; qtot 21.686425
  832         h2     20    ccc    H20    832 0.12178000   1.008000   ; qtot 21.808205
  833         oh     20    ccc     O1    833 -0.56972000  16.000000   ; qtot 21.238485
  834         oh     20    ccc     O6    834 -0.57772000  16.000000   ; qtot 20.660765
  835         c3     20    ccc    C16    835 0.14548000  12.010000   ; qtot 20.806245
  836         ho     20    ccc    H21    836 0.40508000   1.008000   ; qtot 21.211325
  837         hn     20    ccc    H22    837 0.31758000   1.008000   ; qtot 21.528905
  838         h1     20    ccc    H23    838 0.06278000   1.008000   ; qtot 21.591685
  839         h1     20    ccc    H24    839 0.06278000   1.008000   ; qtot 21.654465
  840         oh     20    ccc     O7    840 -0.59472000  16.000000   ; qtot 21.059745
  841         ho     20    ccc    H25    841 0.41908000   1.008000   ; qtot 21.478825
  842         os     20    ccc     O8    842 -0.44552000  16.000000   ; qtot 21.033305
  843         ho     20    ccc    H26    843 0.41908000   1.008000   ; qtot 21.452385
  844         h1     20    ccc    H27    844 0.08578000   1.008000   ; qtot 21.538165
  845         oh     20    ccc     O9    845 -0.58672000  16.000000   ; qtot 20.951445
  846         ho     20    ccc    H28    846 0.41908000   1.008000   ; qtot 21.370525
  847         n3     20    ccc     N3    847 -0.54282000  14.010000   ; qtot 20.827705
  848         c3     20    ccc    C17    848 0.08518000  12.010000   ; qtot 20.912885
  849         c3     20    ccc    C18    849 0.07918000  12.010000   ; qtot 20.992065
  850         h1     20    ccc    H29    850 0.06978000   1.008000   ; qtot 21.061845
  851         c3     20    ccc    C19    851 0.07918000  12.010000   ; qtot 21.141025
  852         c3     20    ccc    C20    852 0.03578000  12.010000   ; qtot 21.176805
  853         c3     20    ccc    C21    853 0.33498000  12.010000   ; qtot 21.511785
  854         h1     20    ccc    H30    854 0.06178000   1.008000   ; qtot 21.573565
  855         h1     20    ccc    H31    855 0.11278000   1.008000   ; qtot 21.686345
  856         h2     20    ccc    H32    856 0.12178000   1.008000   ; qtot 21.808125
  857         oh     20    ccc    O10    857 -0.56972000  16.000000   ; qtot 21.238405
  858         oh     20    ccc    O11    858 -0.57772000  16.000000   ; qtot 20.660685
  859         c3     20    ccc    C22    859 0.14548000  12.010000   ; qtot 20.806165
  860         ho     20    ccc    H33    860 0.40508000   1.008000   ; qtot 21.211245
  861         hn     20    ccc    H34    861 0.31758000   1.008000   ; qtot 21.528825
  862         h1     20    ccc    H35    862 0.06278000   1.008000   ; qtot 21.591605
  863         h1     20    ccc    H36    863 0.06278000   1.008000   ; qtot 21.654385
  864         oh     20    ccc    O12    864 -0.59472000  16.000000   ; qtot 21.059665
  865         ho     20    ccc    H37    865 0.41908000   1.008000   ; qtot 21.478745
  866         os     20    ccc    O13    866 -0.44552000  16.000000   ; qtot 21.033225
  867         ho     20    ccc    H38    867 0.41908000   1.008000   ; qtot 21.452305
  868         h1     20    ccc    H39    868 0.08578000   1.008000   ; qtot 21.538085
  869         oh     20    ccc     O5    869 -0.58672000  16.000000   ; qtot 20.951365
  870         ho     20    ccc    H40    870 0.41908000   1.008000   ; qtot 21.370445
  871         n3     20    ccc     N4    871 -0.54282000  14.010000   ; qtot 20.827625
  872         hn     20    ccc    H41    872 0.17125500   1.008000   ; qtot 20.998880
; residue   21 ccc rtp ccc q 1.0
  873          n     21    ccc     N1    873 -0.33303000  14.010000   ; qtot 20.665850
  874         hn     21    ccc     H4    874 0.25916100   1.008000   ; qtot 20.925011
  875         c3     21    ccc     C3    875 -0.03328100  12.010000   ; qtot 20.891730
  876         h1     21    ccc     H5    876 0.10618100   1.008000   ; qtot 20.997911
  877         c3     21    ccc     C4    877 -0.02083000  12.010000   ; qtot 20.977081
  878         h1     21    ccc     H6    878 0.10618100   1.008000   ; qtot 21.083262
  879         h1     21    ccc     H7    879 0.07988000   1.008000   ; qtot 21.163142
  880         h1     21    ccc     H8    880 0.07988000   1.008000   ; qtot 21.243022
  881         n4     21    ccc     N2    881 -0.02747900  14.010000   ; qtot 21.215543
  882         c3     21    ccc     C5    882 -0.05097600  12.010000   ; qtot 21.164567
  883         c3     21    ccc     C6    883 -0.05097600  12.010000   ; qtot 21.113591
  884         h1     21    ccc     H9    884 0.11563300   1.008000   ; qtot 21.229224
  885         c3     21    ccc     C7    885 -0.18457900  12.010000   ; qtot 21.044645
  886         h1     21    ccc    H10    886 0.11563300   1.008000   ; qtot 21.160278
  887         hc     21    ccc    H11    887 0.08347900   1.008000   ; qtot 21.243757
  888         hc     21    ccc    H12    888 0.08347900   1.008000   ; qtot 21.327236
  889          c     21    ccc     C8    889 0.67254400  12.010000   ; qtot 21.999780
  890          o     21    ccc     O2    890 -0.52917200  16.000000   ; qtot 21.470608
  891         h1     21    ccc    H13    891 0.11563300   1.008000   ; qtot 21.586241
  892         h1     21    ccc    H14    892 0.11563300   1.008000   ; qtot 21.701874
  893         c3     21    ccc     C9    893 -0.18457900  12.010000   ; qtot 21.517295
  894         hc     21    ccc    H15    894 0.08347900   1.008000   ; qtot 21.600774
  895         hc     21    ccc    H16    895 0.08347900   1.008000   ; qtot 21.684253
  896          c     21    ccc    C10    896 0.67254400  12.010000   ; qtot 22.356797
  897          o     21    ccc     O4    897 -0.52917200  16.000000   ; qtot 21.827625
  898         c3     21    ccc    C11    898 0.08518000  12.010000   ; qtot 21.912805
  899         c3     21    ccc    C12    899 0.07918000  12.010000   ; qtot 21.991985
  900         h1     21    ccc    H17    900 0.06978000   1.008000   ; qtot 22.061765
  901         c3     21    ccc    C13    901 0.07918000  12.010000   ; qtot 22.140945
  902         c3     21    ccc    C14    902 0.03578000  12.010000   ; qtot 22.176725
  903         c3     21    ccc    C15    903 0.33498000  12.010000   ; qtot 22.511705
  904         h1     21    ccc    H18    904 0.06178000   1.008000   ; qtot 22.573485
  905         h1     21    ccc    H19    905 0.11278000   1.008000   ; qtot 22.686265
  906         h2     21    ccc    H20    906 0.12178000   1.008000   ; qtot 22.808045
  907         oh     21    ccc     O1    907 -0.56972000  16.000000   ; qtot 22.238325
  908         oh     21    ccc     O6    908 -0.57772000  16.000000   ; qtot 21.660605
  909         c3     21    ccc    C16    909 0.14548000  12.010000   ; qtot 21.806085
  910         ho     21    ccc    H21    910 0.40508000   1.008000   ; qtot 22.211165
  911         hn     21    ccc    H22    911 0.31758000   1.008000   ; qtot 22.528745
  912         h1     21    ccc    H23    912 0.06278000   1.008000   ; qtot 22.591525
  913         h1     21    ccc    H24    913 0.06278000   1.008000   ; qtot 22.654305
  914         oh     21    ccc     O7    914 -0.59472000  16.000000   ; qtot 22.059585
  915         ho     21    ccc    H25    915 0.41908000   1.008000   ; qtot 22.478665
  916         os     21    ccc     O8    916 -0.44552000  16.000000   ; qtot 22.033145
  917         ho     21    ccc    H26    917 0.41908000   1.008000   ; qtot 22.452225
  918         h1     21    ccc    H27    918 0.08578000   1.008000   ; qtot 22.538005
  919         oh     21    ccc     O9    919 -0.58672000  16.000000   ; qtot 21.951285
  920         ho     21    ccc    H28    920 0.41908000   1.008000   ; qtot 22.370365
  921         n3     21    ccc     N3    921 -0.54282000  14.010000   ; qtot 21.827545
  922         c3     21    ccc    C17    922 0.08518000  12.010000   ; qtot 21.912725
  923         c3     21    ccc    C18    923 0.07918000  12.010000   ; qtot 21.991905
  924         h1     21    ccc    H29    924 0.06978000   1.008000   ; qtot 22.061685
  925         c3     21    ccc    C19    925 0.07918000  12.010000   ; qtot 22.140865
  926         c3     21    ccc    C20    926 0.03578000  12.010000   ; qtot 22.176645
  927         c3     21    ccc    C21    927 0.33498000  12.010000   ; qtot 22.511625
  928         h1     21    ccc    H30    928 0.06178000   1.008000   ; qtot 22.573405
  929         h1     21    ccc    H31    929 0.11278000   1.008000   ; qtot 22.686185
  930         h2     21    ccc    H32    930 0.12178000   1.008000   ; qtot 22.807965
  931         oh     21    ccc    O10    931 -0.56972000  16.000000   ; qtot 22.238245
  932         oh     21    ccc    O11    932 -0.57772000  16.000000   ; qtot 21.660525
  933         c3     21    ccc    C22    933 0.14548000  12.010000   ; qtot 21.806005
  934         ho     21    ccc    H33    934 0.40508000   1.008000   ; qtot 22.211085
  935         hn     21    ccc    H34    935 0.31758000   1.008000   ; qtot 22.528665
  936         h1     21    ccc    H35    936 0.06278000   1.008000   ; qtot 22.591445
  937         h1     21    ccc    H36    937 0.06278000   1.008000   ; qtot 22.654225
  938         oh     21    ccc    O12    938 -0.59472000  16.000000   ; qtot 22.059505
  939         ho     21    ccc    H37    939 0.41908000   1.008000   ; qtot 22.478585
  940         os     21    ccc    O13    940 -0.44552000  16.000000   ; qtot 22.033065
  941         ho     21    ccc    H38    941 0.41908000   1.008000   ; qtot 22.452145
  942         h1     21    ccc    H39    942 0.08578000   1.008000   ; qtot 22.537925
  943         oh     21    ccc     O5    943 -0.58672000  16.000000   ; qtot 21.951205
  944         ho     21    ccc    H40    944 0.41908000   1.008000   ; qtot 22.370285
  945         n3     21    ccc     N4    945 -0.54282000  14.010000   ; qtot 21.827465
  946         hn     21    ccc    H41    946 0.17125500   1.008000   ; qtot 21.998720
; residue   22 ccc rtp ccc q 1.0
  947          n     22    ccc     N1    947 -0.33303000  14.010000   ; qtot 21.665690
  948         hn     22    ccc     H4    948 0.25916100   1.008000   ; qtot 21.924851
  949         c3     22    ccc     C3    949 -0.03328100  12.010000   ; qtot 21.891570
  950         h1     22    ccc     H5    950 0.10618100   1.008000   ; qtot 21.997751
  951         c3     22    ccc     C4    951 -0.02083000  12.010000   ; qtot 21.976921
  952         h1     22    ccc     H6    952 0.10618100   1.008000   ; qtot 22.083102
  953         h1     22    ccc     H7    953 0.07988000   1.008000   ; qtot 22.162982
  954         h1     22    ccc     H8    954 0.07988000   1.008000   ; qtot 22.242862
  955         n4     22    ccc     N2    955 -0.02747900  14.010000   ; qtot 22.215383
  956         c3     22    ccc     C5    956 -0.05097600  12.010000   ; qtot 22.164407
  957         c3     22    ccc     C6    957 -0.05097600  12.010000   ; qtot 22.113431
  958         h1     22    ccc     H9    958 0.11563300   1.008000   ; qtot 22.229064
  959         c3     22    ccc     C7    959 -0.18457900  12.010000   ; qtot 22.044485
  960         h1     22    ccc    H10    960 0.11563300   1.008000   ; qtot 22.160118
  961         hc     22    ccc    H11    961 0.08347900   1.008000   ; qtot 22.243597
  962         hc     22    ccc    H12    962 0.08347900   1.008000   ; qtot 22.327076
  963          c     22    ccc     C8    963 0.67254400  12.010000   ; qtot 22.999620
  964          o     22    ccc     O2    964 -0.52917200  16.000000   ; qtot 22.470448
  965         h1     22    ccc    H13    965 0.11563300   1.008000   ; qtot 22.586081
  966         h1     22    ccc    H14    966 0.11563300   1.008000   ; qtot 22.701714
  967         c3     22    ccc     C9    967 -0.18457900  12.010000   ; qtot 22.517135
  968         hc     22    ccc    H15    968 0.08347900   1.008000   ; qtot 22.600614
  969         hc     22    ccc    H16    969 0.08347900   1.008000   ; qtot 22.684093
  970          c     22    ccc    C10    970 0.67254400  12.010000   ; qtot 23.356637
  971          o     22    ccc     O4    971 -0.52917200  16.000000   ; qtot 22.827465
  972         c3     22    ccc    C11    972 0.08518000  12.010000   ; qtot 22.912645
  973         c3     22    ccc    C12    973 0.07918000  12.010000   ; qtot 22.991825
  974         h1     22    ccc    H17    974 0.06978000   1.008000   ; qtot 23.061605
  975         c3     22    ccc    C13    975 0.07918000  12.010000   ; qtot 23.140785
  976         c3     22    ccc    C14    976 0.03578000  12.010000   ; qtot 23.176565
  977         c3     22    ccc    C15    977 0.33498000  12.010000   ; qtot 23.511545
  978         h1     22    ccc    H18    978 0.06178000   1.008000   ; qtot 23.573325
  979         h1     22    ccc    H19    979 0.11278000   1.008000   ; qtot 23.686105
  980         h2     22    ccc    H20    980 0.12178000   1.008000   ; qtot 23.807885
  981         oh     22    ccc     O1    981 -0.56972000  16.000000   ; qtot 23.238165
  982         oh     22    ccc     O6    982 -0.57772000  16.000000   ; qtot 22.660445
  983         c3     22    ccc    C16    983 0.14548000  12.010000   ; qtot 22.805925
  984         ho     22    ccc    H21    984 0.40508000   1.008000   ; qtot 23.211005
  985         hn     22    ccc    H22    985 0.31758000   1.008000   ; qtot 23.528585
  986         h1     22    ccc    H23    986 0.06278000   1.008000   ; qtot 23.591365
  987         h1     22    ccc    H24    987 0.06278000   1.008000   ; qtot 23.654145
  988         oh     22    ccc     O7    988 -0.59472000  16.000000   ; qtot 23.059425
  989         ho     22    ccc    H25    989 0.41908000   1.008000   ; qtot 23.478505
  990         os     22    ccc     O8    990 -0.44552000  16.000000   ; qtot 23.032985
  991         ho     22    ccc    H26    991 0.41908000   1.008000   ; qtot 23.452065
  992         h1     22    ccc    H27    992 0.08578000   1.008000   ; qtot 23.537845
  993         oh     22    ccc     O9    993 -0.58672000  16.000000   ; qtot 22.951125
  994         ho     22    ccc    H28    994 0.41908000   1.008000   ; qtot 23.370205
  995         n3     22    ccc     N3    995 -0.54282000  14.010000   ; qtot 22.827385
  996         c3     22    ccc    C17    996 0.08518000  12.010000   ; qtot 22.912565
  997         c3     22    ccc    C18    997 0.07918000  12.010000   ; qtot 22.991745
  998         h1     22    ccc    H29    998 0.06978000   1.008000   ; qtot 23.061525
  999         c3     22    ccc    C19    999 0.07918000  12.010000   ; qtot 23.140705
 1000         c3     22    ccc    C20   1000 0.03578000  12.010000   ; qtot 23.176485
 1001         c3     22    ccc    C21   1001 0.33498000  12.010000   ; qtot 23.511465
 1002         h1     22    ccc    H30   1002 0.06178000   1.008000   ; qtot 23.573245
 1003         h1     22    ccc    H31   1003 0.11278000   1.008000   ; qtot 23.686025
 1004         h2     22    ccc    H32   1004 0.12178000   1.008000   ; qtot 23.807805
 1005         oh     22    ccc    O10   1005 -0.56972000  16.000000   ; qtot 23.238085
 1006         oh     22    ccc    O11   1006 -0.57772000  16.000000   ; qtot 22.660365
 1007         c3     22    ccc    C22   1007 0.14548000  12.010000   ; qtot 22.805845
 1008         ho     22    ccc    H33   1008 0.40508000   1.008000   ; qtot 23.210925
 1009         hn     22    ccc    H34   1009 0.31758000   1.008000   ; qtot 23.528505
 1010         h1     22    ccc    H35   1010 0.06278000   1.008000   ; qtot 23.591285
 1011         h1     22    ccc    H36   1011 0.06278000   1.008000   ; qtot 23.654065
 1012         oh     22    ccc    O12   1012 -0.59472000  16.000000   ; qtot 23.059345
 1013         ho     22    ccc    H37   1013 0.41908000   1.008000   ; qtot 23.478425
 1014         os     22    ccc    O13   1014 -0.44552000  16.000000   ; qtot 23.032905
 1015         ho     22    ccc    H38   1015 0.41908000   1.008000   ; qtot 23.451985
 1016         h1     22    ccc    H39   1016 0.08578000   1.008000   ; qtot 23.537765
 1017         oh     22    ccc     O5   1017 -0.58672000  16.000000   ; qtot 22.951045
 1018         ho     22    ccc    H40   1018 0.41908000   1.008000   ; qtot 23.370125
 1019         n3     22    ccc     N4   1019 -0.54282000  14.010000   ; qtot 22.827305
 1020         hn     22    ccc    H41   1020 0.17125500   1.008000   ; qtot 22.998560
; residue   23 ccc rtp ccc q 1.0
 1021          n     23    ccc     N1   1021 -0.33303000  14.010000   ; qtot 22.665530
 1022         hn     23    ccc     H4   1022 0.25916100   1.008000   ; qtot 22.924691
 1023         c3     23    ccc     C3   1023 -0.03328100  12.010000   ; qtot 22.891410
 1024         h1     23    ccc     H5   1024 0.10618100   1.008000   ; qtot 22.997591
 1025         c3     23    ccc     C4   1025 -0.02083000  12.010000   ; qtot 22.976761
 1026         h1     23    ccc     H6   1026 0.10618100   1.008000   ; qtot 23.082942
 1027         h1     23    ccc     H7   1027 0.07988000   1.008000   ; qtot 23.162822
 1028         h1     23    ccc     H8   1028 0.07988000   1.008000   ; qtot 23.242702
 1029         n4     23    ccc     N2   1029 -0.02747900  14.010000   ; qtot 23.215223
 1030         c3     23    ccc     C5   1030 -0.05097600  12.010000   ; qtot 23.164247
 1031         c3     23    ccc     C6   1031 -0.05097600  12.010000   ; qtot 23.113271
 1032         h1     23    ccc     H9   1032 0.11563300   1.008000   ; qtot 23.228904
 1033         c3     23    ccc     C7   1033 -0.18457900  12.010000   ; qtot 23.044325
 1034         h1     23    ccc    H10   1034 0.11563300   1.008000   ; qtot 23.159958
 1035         hc     23    ccc    H11   1035 0.08347900   1.008000   ; qtot 23.243437
 1036         hc     23    ccc    H12   1036 0.08347900   1.008000   ; qtot 23.326916
 1037          c     23    ccc     C8   1037 0.67254400  12.010000   ; qtot 23.999460
 1038          o     23    ccc     O2   1038 -0.52917200  16.000000   ; qtot 23.470288
 1039         h1     23    ccc    H13   1039 0.11563300   1.008000   ; qtot 23.585921
 1040         h1     23    ccc    H14   1040 0.11563300   1.008000   ; qtot 23.701554
 1041         c3     23    ccc     C9   1041 -0.18457900  12.010000   ; qtot 23.516975
 1042         hc     23    ccc    H15   1042 0.08347900   1.008000   ; qtot 23.600454
 1043         hc     23    ccc    H16   1043 0.08347900   1.008000   ; qtot 23.683933
 1044          c     23    ccc    C10   1044 0.67254400  12.010000   ; qtot 24.356477
 1045          o     23    ccc     O4   1045 -0.52917200  16.000000   ; qtot 23.827305
 1046         c3     23    ccc    C11   1046 0.08518000  12.010000   ; qtot 23.912485
 1047         c3     23    ccc    C12   1047 0.07918000  12.010000   ; qtot 23.991665
 1048         h1     23    ccc    H17   1048 0.06978000   1.008000   ; qtot 24.061445
 1049         c3     23    ccc    C13   1049 0.07918000  12.010000   ; qtot 24.140625
 1050         c3     23    ccc    C14   1050 0.03578000  12.010000   ; qtot 24.176405
 1051         c3     23    ccc    C15   1051 0.33498000  12.010000   ; qtot 24.511385
 1052         h1     23    ccc    H18   1052 0.06178000   1.008000   ; qtot 24.573165
 1053         h1     23    ccc    H19   1053 0.11278000   1.008000   ; qtot 24.685945
 1054         h2     23    ccc    H20   1054 0.12178000   1.008000   ; qtot 24.807725
 1055         oh     23    ccc     O1   1055 -0.56972000  16.000000   ; qtot 24.238005
 1056         oh     23    ccc     O6   1056 -0.57772000  16.000000   ; qtot 23.660285
 1057         c3     23    ccc    C16   1057 0.14548000  12.010000   ; qtot 23.805765
 1058         ho     23    ccc    H21   1058 0.40508000   1.008000   ; qtot 24.210845
 1059         hn     23    ccc    H22   1059 0.31758000   1.008000   ; qtot 24.528425
 1060         h1     23    ccc    H23   1060 0.06278000   1.008000   ; qtot 24.591205
 1061         h1     23    ccc    H24   1061 0.06278000   1.008000   ; qtot 24.653985
 1062         oh     23    ccc     O7   1062 -0.59472000  16.000000   ; qtot 24.059265
 1063         ho     23    ccc    H25   1063 0.41908000   1.008000   ; qtot 24.478345
 1064         os     23    ccc     O8   1064 -0.44552000  16.000000   ; qtot 24.032825
 1065         ho     23    ccc    H26   1065 0.41908000   1.008000   ; qtot 24.451905
 1066         h1     23    ccc    H27   1066 0.08578000   1.008000   ; qtot 24.537685
 1067         oh     23    ccc     O9   1067 -0.58672000  16.000000   ; qtot 23.950965
 1068         ho     23    ccc    H28   1068 0.41908000   1.008000   ; qtot 24.370045
 1069         n3     23    ccc     N3   1069 -0.54282000  14.010000   ; qtot 23.827225
 1070         c3     23    ccc    C17   1070 0.08518000  12.010000   ; qtot 23.912405
 1071         c3     23    ccc    C18   1071 0.07918000  12.010000   ; qtot 23.991585
 1072         h1     23    ccc    H29   1072 0.06978000   1.008000   ; qtot 24.061365
 1073         c3     23    ccc    C19   1073 0.07918000  12.010000   ; qtot 24.140545
 1074         c3     23    ccc    C20   1074 0.03578000  12.010000   ; qtot 24.176325
 1075         c3     23    ccc    C21   1075 0.33498000  12.010000   ; qtot 24.511305
 1076         h1     23    ccc    H30   1076 0.06178000   1.008000   ; qtot 24.573085
 1077         h1     23    ccc    H31   1077 0.11278000   1.008000   ; qtot 24.685865
 1078         h2     23    ccc    H32   1078 0.12178000   1.008000   ; qtot 24.807645
 1079         oh     23    ccc    O10   1079 -0.56972000  16.000000   ; qtot 24.237925
 1080         oh     23    ccc    O11   1080 -0.57772000  16.000000   ; qtot 23.660205
 1081         c3     23    ccc    C22   1081 0.14548000  12.010000   ; qtot 23.805685
 1082         ho     23    ccc    H33   1082 0.40508000   1.008000   ; qtot 24.210765
 1083         hn     23    ccc    H34   1083 0.31758000   1.008000   ; qtot 24.528345
 1084         h1     23    ccc    H35   1084 0.06278000   1.008000   ; qtot 24.591125
 1085         h1     23    ccc    H36   1085 0.06278000   1.008000   ; qtot 24.653905
 1086         oh     23    ccc    O12   1086 -0.59472000  16.000000   ; qtot 24.059185
 1087         ho     23    ccc    H37   1087 0.41908000   1.008000   ; qtot 24.478265
 1088         os     23    ccc    O13   1088 -0.44552000  16.000000   ; qtot 24.032745
 1089         ho     23    ccc    H38   1089 0.41908000   1.008000   ; qtot 24.451825
 1090         h1     23    ccc    H39   1090 0.08578000   1.008000   ; qtot 24.537605
 1091         oh     23    ccc     O5   1091 -0.58672000  16.000000   ; qtot 23.950885
 1092         ho     23    ccc    H40   1092 0.41908000   1.008000   ; qtot 24.369965
 1093         n3     23    ccc     N4   1093 -0.54282000  14.010000   ; qtot 23.827145
 1094         hn     23    ccc    H41   1094 0.17125500   1.008000   ; qtot 23.998400
; residue   24 ccc rtp ccc q 1.0
 1095          n     24    ccc     N1   1095 -0.33303000  14.010000   ; qtot 23.665370
 1096         hn     24    ccc     H4   1096 0.25916100   1.008000   ; qtot 23.924531
 1097         c3     24    ccc     C3   1097 -0.03328100  12.010000   ; qtot 23.891250
 1098         h1     24    ccc     H5   1098 0.10618100   1.008000   ; qtot 23.997431
 1099         c3     24    ccc     C4   1099 -0.02083000  12.010000   ; qtot 23.976601
 1100         h1     24    ccc     H6   1100 0.10618100   1.008000   ; qtot 24.082782
 1101         h1     24    ccc     H7   1101 0.07988000   1.008000   ; qtot 24.162662
 1102         h1     24    ccc     H8   1102 0.07988000   1.008000   ; qtot 24.242542
 1103         n4     24    ccc     N2   1103 -0.02747900  14.010000   ; qtot 24.215063
 1104         c3     24    ccc     C5   1104 -0.05097600  12.010000   ; qtot 24.164087
 1105         c3     24    ccc     C6   1105 -0.05097600  12.010000   ; qtot 24.113111
 1106         h1     24    ccc     H9   1106 0.11563300   1.008000   ; qtot 24.228744
 1107         c3     24    ccc     C7   1107 -0.18457900  12.010000   ; qtot 24.044165
 1108         h1     24    ccc    H10   1108 0.11563300   1.008000   ; qtot 24.159798
 1109         hc     24    ccc    H11   1109 0.08347900   1.008000   ; qtot 24.243277
 1110         hc     24    ccc    H12   1110 0.08347900   1.008000   ; qtot 24.326756
 1111          c     24    ccc     C8   1111 0.67254400  12.010000   ; qtot 24.999300
 1112          o     24    ccc     O2   1112 -0.52917200  16.000000   ; qtot 24.470128
 1113         h1     24    ccc    H13   1113 0.11563300   1.008000   ; qtot 24.585761
 1114         h1     24    ccc    H14   1114 0.11563300   1.008000   ; qtot 24.701394
 1115         c3     24    ccc     C9   1115 -0.18457900  12.010000   ; qtot 24.516815
 1116         hc     24    ccc    H15   1116 0.08347900   1.008000   ; qtot 24.600294
 1117         hc     24    ccc    H16   1117 0.08347900   1.008000   ; qtot 24.683773
 1118          c     24    ccc    C10   1118 0.67254400  12.010000   ; qtot 25.356317
 1119          o     24    ccc     O4   1119 -0.52917200  16.000000   ; qtot 24.827145
 1120         c3     24    ccc    C11   1120 0.08518000  12.010000   ; qtot 24.912325
 1121         c3     24    ccc    C12   1121 0.07918000  12.010000   ; qtot 24.991505
 1122         h1     24    ccc    H17   1122 0.06978000   1.008000   ; qtot 25.061285
 1123         c3     24    ccc    C13   1123 0.07918000  12.010000   ; qtot 25.140465
 1124         c3     24    ccc    C14   1124 0.03578000  12.010000   ; qtot 25.176245
 1125         c3     24    ccc    C15   1125 0.33498000  12.010000   ; qtot 25.511225
 1126         h1     24    ccc    H18   1126 0.06178000   1.008000   ; qtot 25.573005
 1127         h1     24    ccc    H19   1127 0.11278000   1.008000   ; qtot 25.685785
 1128         h2     24    ccc    H20   1128 0.12178000   1.008000   ; qtot 25.807565
 1129         oh     24    ccc     O1   1129 -0.56972000  16.000000   ; qtot 25.237845
 1130         oh     24    ccc     O6   1130 -0.57772000  16.000000   ; qtot 24.660125
 1131         c3     24    ccc    C16   1131 0.14548000  12.010000   ; qtot 24.805605
 1132         ho     24    ccc    H21   1132 0.40508000   1.008000   ; qtot 25.210685
 1133         hn     24    ccc    H22   1133 0.31758000   1.008000   ; qtot 25.528265
 1134         h1     24    ccc    H23   1134 0.06278000   1.008000   ; qtot 25.591045
 1135         h1     24    ccc    H24   1135 0.06278000   1.008000   ; qtot 25.653825
 1136         oh     24    ccc     O7   1136 -0.59472000  16.000000   ; qtot 25.059105
 1137         ho     24    ccc    H25   1137 0.41908000   1.008000   ; qtot 25.478185
 1138         os     24    ccc     O8   1138 -0.44552000  16.000000   ; qtot 25.032665
 1139         ho     24    ccc    H26   1139 0.41908000   1.008000   ; qtot 25.451745
 1140         h1     24    ccc    H27   1140 0.08578000   1.008000   ; qtot 25.537525
 1141         oh     24    ccc     O9   1141 -0.58672000  16.000000   ; qtot 24.950805
 1142         ho     24    ccc    H28   1142 0.41908000   1.008000   ; qtot 25.369885
 1143         n3     24    ccc     N3   1143 -0.54282000  14.010000   ; qtot 24.827065
 1144         c3     24    ccc    C17   1144 0.08518000  12.010000   ; qtot 24.912245
 1145         c3     24    ccc    C18   1145 0.07918000  12.010000   ; qtot 24.991425
 1146         h1     24    ccc    H29   1146 0.06978000   1.008000   ; qtot 25.061205
 1147         c3     24    ccc    C19   1147 0.07918000  12.010000   ; qtot 25.140385
 1148         c3     24    ccc    C20   1148 0.03578000  12.010000   ; qtot 25.176165
 1149         c3     24    ccc    C21   1149 0.33498000  12.010000   ; qtot 25.511145
 1150         h1     24    ccc    H30   1150 0.06178000   1.008000   ; qtot 25.572925
 1151         h1     24    ccc    H31   1151 0.11278000   1.008000   ; qtot 25.685705
 1152         h2     24    ccc    H32   1152 0.12178000   1.008000   ; qtot 25.807485
 1153         oh     24    ccc    O10   1153 -0.56972000  16.000000   ; qtot 25.237765
 1154         oh     24    ccc    O11   1154 -0.57772000  16.000000   ; qtot 24.660045
 1155         c3     24    ccc    C22   1155 0.14548000  12.010000   ; qtot 24.805525
 1156         ho     24    ccc    H33   1156 0.40508000   1.008000   ; qtot 25.210605
 1157         hn     24    ccc    H34   1157 0.31758000   1.008000   ; qtot 25.528185
 1158         h1     24    ccc    H35   1158 0.06278000   1.008000   ; qtot 25.590965
 1159         h1     24    ccc    H36   1159 0.06278000   1.008000   ; qtot 25.653745
 1160         oh     24    ccc    O12   1160 -0.59472000  16.000000   ; qtot 25.059025
 1161         ho     24    ccc    H37   1161 0.41908000   1.008000   ; qtot 25.478105
 1162         os     24    ccc    O13   1162 -0.44552000  16.000000   ; qtot 25.032585
 1163         ho     24    ccc    H38   1163 0.41908000   1.008000   ; qtot 25.451665
 1164         h1     24    ccc    H39   1164 0.08578000   1.008000   ; qtot 25.537445
 1165         oh     24    ccc     O5   1165 -0.58672000  16.000000   ; qtot 24.950725
 1166         ho     24    ccc    H40   1166 0.41908000   1.008000   ; qtot 25.369805
 1167         n3     24    ccc     N4   1167 -0.54282000  14.010000   ; qtot 24.826985
 1168         hn     24    ccc    H41   1168 0.17125500   1.008000   ; qtot 24.998240
; residue   25 ccc rtp ccc q 1.0
 1169          n     25    ccc     N1   1169 -0.33303000  14.010000   ; qtot 24.665210
 1170         hn     25    ccc     H4   1170 0.25916100   1.008000   ; qtot 24.924371
 1171         c3     25    ccc     C3   1171 -0.03328100  12.010000   ; qtot 24.891090
 1172         h1     25    ccc     H5   1172 0.10618100   1.008000   ; qtot 24.997271
 1173         c3     25    ccc     C4   1173 -0.02083000  12.010000   ; qtot 24.976441
 1174         h1     25    ccc     H6   1174 0.10618100   1.008000   ; qtot 25.082622
 1175         h1     25    ccc     H7   1175 0.07988000   1.008000   ; qtot 25.162502
 1176         h1     25    ccc     H8   1176 0.07988000   1.008000   ; qtot 25.242382
 1177         n4     25    ccc     N2   1177 -0.02747900  14.010000   ; qtot 25.214903
 1178         c3     25    ccc     C5   1178 -0.05097600  12.010000   ; qtot 25.163927
 1179         c3     25    ccc     C6   1179 -0.05097600  12.010000   ; qtot 25.112951
 1180         h1     25    ccc     H9   1180 0.11563300   1.008000   ; qtot 25.228584
 1181         c3     25    ccc     C7   1181 -0.18457900  12.010000   ; qtot 25.044005
 1182         h1     25    ccc    H10   1182 0.11563300   1.008000   ; qtot 25.159638
 1183         hc     25    ccc    H11   1183 0.08347900   1.008000   ; qtot 25.243117
 1184         hc     25    ccc    H12   1184 0.08347900   1.008000   ; qtot 25.326596
 1185          c     25    ccc     C8   1185 0.67254400  12.010000   ; qtot 25.999140
 1186          o     25    ccc     O2   1186 -0.52917200  16.000000   ; qtot 25.469968
 1187         h1     25    ccc    H13   1187 0.11563300   1.008000   ; qtot 25.585601
 1188         h1     25    ccc    H14   1188 0.11563300   1.008000   ; qtot 25.701234
 1189         c3     25    ccc     C9   1189 -0.18457900  12.010000   ; qtot 25.516655
 1190         hc     25    ccc    H15   1190 0.08347900   1.008000   ; qtot 25.600134
 1191         hc     25    ccc    H16   1191 0.08347900   1.008000   ; qtot 25.683613
 1192          c     25    ccc    C10   1192 0.67254400  12.010000   ; qtot 26.356157
 1193          o     25    ccc     O4   1193 -0.52917200  16.000000   ; qtot 25.826985
 1194         c3     25    ccc    C11   1194 0.08518000  12.010000   ; qtot 25.912165
 1195         c3     25    ccc    C12   1195 0.07918000  12.010000   ; qtot 25.991345
 1196         h1     25    ccc    H17   1196 0.06978000   1.008000   ; qtot 26.061125
 1197         c3     25    ccc    C13   1197 0.07918000  12.010000   ; qtot 26.140305
 1198         c3     25    ccc    C14   1198 0.03578000  12.010000   ; qtot 26.176085
 1199         c3     25    ccc    C15   1199 0.33498000  12.010000   ; qtot 26.511065
 1200         h1     25    ccc    H18   1200 0.06178000   1.008000   ; qtot 26.572845
 1201         h1     25    ccc    H19   1201 0.11278000   1.008000   ; qtot 26.685625
 1202         h2     25    ccc    H20   1202 0.12178000   1.008000   ; qtot 26.807405
 1203         oh     25    ccc     O1   1203 -0.56972000  16.000000   ; qtot 26.237685
 1204         oh     25    ccc     O6   1204 -0.57772000  16.000000   ; qtot 25.659965
 1205         c3     25    ccc    C16   1205 0.14548000  12.010000   ; qtot 25.805445
 1206         ho     25    ccc    H21   1206 0.40508000   1.008000   ; qtot 26.210525
 1207         hn     25    ccc    H22   1207 0.31758000   1.008000   ; qtot 26.528105
 1208         h1     25    ccc    H23   1208 0.06278000   1.008000   ; qtot 26.590885
 1209         h1     25    ccc    H24   1209 0.06278000   1.008000   ; qtot 26.653665
 1210         oh     25    ccc     O7   1210 -0.59472000  16.000000   ; qtot 26.058945
 1211         ho     25    ccc    H25   1211 0.41908000   1.008000   ; qtot 26.478025
 1212         os     25    ccc     O8   1212 -0.44552000  16.000000   ; qtot 26.032505
 1213         ho     25    ccc    H26   1213 0.41908000   1.008000   ; qtot 26.451585
 1214         h1     25    ccc    H27   1214 0.08578000   1.008000   ; qtot 26.537365
 1215         oh     25    ccc     O9   1215 -0.58672000  16.000000   ; qtot 25.950645
 1216         ho     25    ccc    H28   1216 0.41908000   1.008000   ; qtot 26.369725
 1217         n3     25    ccc     N3   1217 -0.54282000  14.010000   ; qtot 25.826905
 1218         c3     25    ccc    C17   1218 0.08518000  12.010000   ; qtot 25.912085
 1219         c3     25    ccc    C18   1219 0.07918000  12.010000   ; qtot 25.991265
 1220         h1     25    ccc    H29   1220 0.06978000   1.008000   ; qtot 26.061045
 1221         c3     25    ccc    C19   1221 0.07918000  12.010000   ; qtot 26.140225
 1222         c3     25    ccc    C20   1222 0.03578000  12.010000   ; qtot 26.176005
 1223         c3     25    ccc    C21   1223 0.33498000  12.010000   ; qtot 26.510985
 1224         h1     25    ccc    H30   1224 0.06178000   1.008000   ; qtot 26.572765
 1225         h1     25    ccc    H31   1225 0.11278000   1.008000   ; qtot 26.685545
 1226         h2     25    ccc    H32   1226 0.12178000   1.008000   ; qtot 26.807325
 1227         oh     25    ccc    O10   1227 -0.56972000  16.000000   ; qtot 26.237605
 1228         oh     25    ccc    O11   1228 -0.57772000  16.000000   ; qtot 25.659885
 1229         c3     25    ccc    C22   1229 0.14548000  12.010000   ; qtot 25.805365
 1230         ho     25    ccc    H33   1230 0.40508000   1.008000   ; qtot 26.210445
 1231         hn     25    ccc    H34   1231 0.31758000   1.008000   ; qtot 26.528025
 1232         h1     25    ccc    H35   1232 0.06278000   1.008000   ; qtot 26.590805
 1233         h1     25    ccc    H36   1233 0.06278000   1.008000   ; qtot 26.653585
 1234         oh     25    ccc    O12   1234 -0.59472000  16.000000   ; qtot 26.058865
 1235         ho     25    ccc    H37   1235 0.41908000   1.008000   ; qtot 26.477945
 1236         os     25    ccc    O13   1236 -0.44552000  16.000000   ; qtot 26.032425
 1237         ho     25    ccc    H38   1237 0.41908000   1.008000   ; qtot 26.451505
 1238         h1     25    ccc    H39   1238 0.08578000   1.008000   ; qtot 26.537285
 1239         oh     25    ccc     O5   1239 -0.58672000  16.000000   ; qtot 25.950565
 1240         ho     25    ccc    H40   1240 0.41908000   1.008000   ; qtot 26.369645
 1241         n3     25    ccc     N4   1241 -0.54282000  14.010000   ; qtot 25.826825
 1242         hn     25    ccc    H41   1242 0.17125500   1.008000   ; qtot 25.998080
; residue   26 ccc rtp ccc q 1.0
 1243          n     26    ccc     N1   1243 -0.33303000  14.010000   ; qtot 25.665050
 1244         hn     26    ccc     H4   1244 0.25916100   1.008000   ; qtot 25.924211
 1245         c3     26    ccc     C3   1245 -0.03328100  12.010000   ; qtot 25.890930
 1246         h1     26    ccc     H5   1246 0.10618100   1.008000   ; qtot 25.997111
 1247         c3     26    ccc     C4   1247 -0.02083000  12.010000   ; qtot 25.976281
 1248         h1     26    ccc     H6   1248 0.10618100   1.008000   ; qtot 26.082462
 1249         h1     26    ccc     H7   1249 0.07988000   1.008000   ; qtot 26.162342
 1250         h1     26    ccc     H8   1250 0.07988000   1.008000   ; qtot 26.242222
 1251         n4     26    ccc     N2   1251 -0.02747900  14.010000   ; qtot 26.214743
 1252         c3     26    ccc     C5   1252 -0.05097600  12.010000   ; qtot 26.163767
 1253         c3     26    ccc     C6   1253 -0.05097600  12.010000   ; qtot 26.112791
 1254         h1     26    ccc     H9   1254 0.11563300   1.008000   ; qtot 26.228424
 1255         c3     26    ccc     C7   1255 -0.18457900  12.010000   ; qtot 26.043845
 1256         h1     26    ccc    H10   1256 0.11563300   1.008000   ; qtot 26.159478
 1257         hc     26    ccc    H11   1257 0.08347900   1.008000   ; qtot 26.242957
 1258         hc     26    ccc    H12   1258 0.08347900   1.008000   ; qtot 26.326436
 1259          c     26    ccc     C8   1259 0.67254400  12.010000   ; qtot 26.998980
 1260          o     26    ccc     O2   1260 -0.52917200  16.000000   ; qtot 26.469808
 1261         h1     26    ccc    H13   1261 0.11563300   1.008000   ; qtot 26.585441
 1262         h1     26    ccc    H14   1262 0.11563300   1.008000   ; qtot 26.701074
 1263         c3     26    ccc     C9   1263 -0.18457900  12.010000   ; qtot 26.516495
 1264         hc     26    ccc    H15   1264 0.08347900   1.008000   ; qtot 26.599974
 1265         hc     26    ccc    H16   1265 0.08347900   1.008000   ; qtot 26.683453
 1266          c     26    ccc    C10   1266 0.67254400  12.010000   ; qtot 27.355997
 1267          o     26    ccc     O4   1267 -0.52917200  16.000000   ; qtot 26.826825
 1268         c3     26    ccc    C11   1268 0.08518000  12.010000   ; qtot 26.912005
 1269         c3     26    ccc    C12   1269 0.07918000  12.010000   ; qtot 26.991185
 1270         h1     26    ccc    H17   1270 0.06978000   1.008000   ; qtot 27.060965
 1271         c3     26    ccc    C13   1271 0.07918000  12.010000   ; qtot 27.140145
 1272         c3     26    ccc    C14   1272 0.03578000  12.010000   ; qtot 27.175925
 1273         c3     26    ccc    C15   1273 0.33498000  12.010000   ; qtot 27.510905
 1274         h1     26    ccc    H18   1274 0.06178000   1.008000   ; qtot 27.572685
 1275         h1     26    ccc    H19   1275 0.11278000   1.008000   ; qtot 27.685465
 1276         h2     26    ccc    H20   1276 0.12178000   1.008000   ; qtot 27.807245
 1277         oh     26    ccc     O1   1277 -0.56972000  16.000000   ; qtot 27.237525
 1278         oh     26    ccc     O6   1278 -0.57772000  16.000000   ; qtot 26.659805
 1279         c3     26    ccc    C16   1279 0.14548000  12.010000   ; qtot 26.805285
 1280         ho     26    ccc    H21   1280 0.40508000   1.008000   ; qtot 27.210365
 1281         hn     26    ccc    H22   1281 0.31758000   1.008000   ; qtot 27.527945
 1282         h1     26    ccc    H23   1282 0.06278000   1.008000   ; qtot 27.590725
 1283         h1     26    ccc    H24   1283 0.06278000   1.008000   ; qtot 27.653505
 1284         oh     26    ccc     O7   1284 -0.59472000  16.000000   ; qtot 27.058785
 1285         ho     26    ccc    H25   1285 0.41908000   1.008000   ; qtot 27.477865
 1286         os     26    ccc     O8   1286 -0.44552000  16.000000   ; qtot 27.032345
 1287         ho     26    ccc    H26   1287 0.41908000   1.008000   ; qtot 27.451425
 1288         h1     26    ccc    H27   1288 0.08578000   1.008000   ; qtot 27.537205
 1289         oh     26    ccc     O9   1289 -0.58672000  16.000000   ; qtot 26.950485
 1290         ho     26    ccc    H28   1290 0.41908000   1.008000   ; qtot 27.369565
 1291         n3     26    ccc     N3   1291 -0.54282000  14.010000   ; qtot 26.826745
 1292         c3     26    ccc    C17   1292 0.08518000  12.010000   ; qtot 26.911925
 1293         c3     26    ccc    C18   1293 0.07918000  12.010000   ; qtot 26.991105
 1294         h1     26    ccc    H29   1294 0.06978000   1.008000   ; qtot 27.060885
 1295         c3     26    ccc    C19   1295 0.07918000  12.010000   ; qtot 27.140065
 1296         c3     26    ccc    C20   1296 0.03578000  12.010000   ; qtot 27.175845
 1297         c3     26    ccc    C21   1297 0.33498000  12.010000   ; qtot 27.510825
 1298         h1     26    ccc    H30   1298 0.06178000   1.008000   ; qtot 27.572605
 1299         h1     26    ccc    H31   1299 0.11278000   1.008000   ; qtot 27.685385
 1300         h2     26    ccc    H32   1300 0.12178000   1.008000   ; qtot 27.807165
 1301         oh     26    ccc    O10   1301 -0.56972000  16.000000   ; qtot 27.237445
 1302         oh     26    ccc    O11   1302 -0.57772000  16.000000   ; qtot 26.659725
 1303         c3     26    ccc    C22   1303 0.14548000  12.010000   ; qtot 26.805205
 1304         ho     26    ccc    H33   1304 0.40508000   1.008000   ; qtot 27.210285
 1305         hn     26    ccc    H34   1305 0.31758000   1.008000   ; qtot 27.527865
 1306         h1     26    ccc    H35   1306 0.06278000   1.008000   ; qtot 27.590645
 1307         h1     26    ccc    H36   1307 0.06278000   1.008000   ; qtot 27.653425
 1308         oh     26    ccc    O12   1308 -0.59472000  16.000000   ; qtot 27.058705
 1309         ho     26    ccc    H37   1309 0.41908000   1.008000   ; qtot 27.477785
 1310         os     26    ccc    O13   1310 -0.44552000  16.000000   ; qtot 27.032265
 1311         ho     26    ccc    H38   1311 0.41908000   1.008000   ; qtot 27.451345
 1312         h1     26    ccc    H39   1312 0.08578000   1.008000   ; qtot 27.537125
 1313         oh     26    ccc     O5   1313 -0.58672000  16.000000   ; qtot 26.950405
 1314         ho     26    ccc    H40   1314 0.41908000   1.008000   ; qtot 27.369485
 1315         n3     26    ccc     N4   1315 -0.54282000  14.010000   ; qtot 26.826665
 1316         hn     26    ccc    H41   1316 0.17125500   1.008000   ; qtot 26.997920
; residue   27 ccc rtp ccc q 1.0
 1317          n     27    ccc     N1   1317 -0.33303000  14.010000   ; qtot 26.664890
 1318         hn     27    ccc     H4   1318 0.25916100   1.008000   ; qtot 26.924051
 1319         c3     27    ccc     C3   1319 -0.03328100  12.010000   ; qtot 26.890770
 1320         h1     27    ccc     H5   1320 0.10618100   1.008000   ; qtot 26.996951
 1321         c3     27    ccc     C4   1321 -0.02083000  12.010000   ; qtot 26.976121
 1322         h1     27    ccc     H6   1322 0.10618100   1.008000   ; qtot 27.082302
 1323         h1     27    ccc     H7   1323 0.07988000   1.008000   ; qtot 27.162182
 1324         h1     27    ccc     H8   1324 0.07988000   1.008000   ; qtot 27.242062
 1325         n4     27    ccc     N2   1325 -0.02747900  14.010000   ; qtot 27.214583
 1326         c3     27    ccc     C5   1326 -0.05097600  12.010000   ; qtot 27.163607
 1327         c3     27    ccc     C6   1327 -0.05097600  12.010000   ; qtot 27.112631
 1328         h1     27    ccc     H9   1328 0.11563300   1.008000   ; qtot 27.228264
 1329         c3     27    ccc     C7   1329 -0.18457900  12.010000   ; qtot 27.043685
 1330         h1     27    ccc    H10   1330 0.11563300   1.008000   ; qtot 27.159318
 1331         hc     27    ccc    H11   1331 0.08347900   1.008000   ; qtot 27.242797
 1332         hc     27    ccc    H12   1332 0.08347900   1.008000   ; qtot 27.326276
 1333          c     27    ccc     C8   1333 0.67254400  12.010000   ; qtot 27.998820
 1334          o     27    ccc     O2   1334 -0.52917200  16.000000   ; qtot 27.469648
 1335         h1     27    ccc    H13   1335 0.11563300   1.008000   ; qtot 27.585281
 1336         h1     27    ccc    H14   1336 0.11563300   1.008000   ; qtot 27.700914
 1337         c3     27    ccc     C9   1337 -0.18457900  12.010000   ; qtot 27.516335
 1338         hc     27    ccc    H15   1338 0.08347900   1.008000   ; qtot 27.599814
 1339         hc     27    ccc    H16   1339 0.08347900   1.008000   ; qtot 27.683293
 1340          c     27    ccc    C10   1340 0.67254400  12.010000   ; qtot 28.355837
 1341          o     27    ccc     O4   1341 -0.52917200  16.000000   ; qtot 27.826665
 1342         c3     27    ccc    C11   1342 0.08518000  12.010000   ; qtot 27.911845
 1343         c3     27    ccc    C12   1343 0.07918000  12.010000   ; qtot 27.991025
 1344         h1     27    ccc    H17   1344 0.06978000   1.008000   ; qtot 28.060805
 1345         c3     27    ccc    C13   1345 0.07918000  12.010000   ; qtot 28.139985
 1346         c3     27    ccc    C14   1346 0.03578000  12.010000   ; qtot 28.175765
 1347         c3     27    ccc    C15   1347 0.33498000  12.010000   ; qtot 28.510745
 1348         h1     27    ccc    H18   1348 0.06178000   1.008000   ; qtot 28.572525
 1349         h1     27    ccc    H19   1349 0.11278000   1.008000   ; qtot 28.685305
 1350         h2     27    ccc    H20   1350 0.12178000   1.008000   ; qtot 28.807085
 1351         oh     27    ccc     O1   1351 -0.56972000  16.000000   ; qtot 28.237365
 1352         oh     27    ccc     O6   1352 -0.57772000  16.000000   ; qtot 27.659645
 1353         c3     27    ccc    C16   1353 0.14548000  12.010000   ; qtot 27.805125
 1354         ho     27    ccc    H21   1354 0.40508000   1.008000   ; qtot 28.210205
 1355         hn     27    ccc    H22   1355 0.31758000   1.008000   ; qtot 28.527785
 1356         h1     27    ccc    H23   1356 0.06278000   1.008000   ; qtot 28.590565
 1357         h1     27    ccc    H24   1357 0.06278000   1.008000   ; qtot 28.653345
 1358         oh     27    ccc     O7   1358 -0.59472000  16.000000   ; qtot 28.058625
 1359         ho     27    ccc    H25   1359 0.41908000   1.008000   ; qtot 28.477705
 1360         os     27    ccc     O8   1360 -0.44552000  16.000000   ; qtot 28.032185
 1361         ho     27    ccc    H26   1361 0.41908000   1.008000   ; qtot 28.451265
 1362         h1     27    ccc    H27   1362 0.08578000   1.008000   ; qtot 28.537045
 1363         oh     27    ccc     O9   1363 -0.58672000  16.000000   ; qtot 27.950325
 1364         ho     27    ccc    H28   1364 0.41908000   1.008000   ; qtot 28.369405
 1365         n3     27    ccc     N3   1365 -0.54282000  14.010000   ; qtot 27.826585
 1366         c3     27    ccc    C17   1366 0.08518000  12.010000   ; qtot 27.911765
 1367         c3     27    ccc    C18   1367 0.07918000  12.010000   ; qtot 27.990945
 1368         h1     27    ccc    H29   1368 0.06978000   1.008000   ; qtot 28.060725
 1369         c3     27    ccc    C19   1369 0.07918000  12.010000   ; qtot 28.139905
 1370         c3     27    ccc    C20   1370 0.03578000  12.010000   ; qtot 28.175685
 1371         c3     27    ccc    C21   1371 0.33498000  12.010000   ; qtot 28.510665
 1372         h1     27    ccc    H30   1372 0.06178000   1.008000   ; qtot 28.572445
 1373         h1     27    ccc    H31   1373 0.11278000   1.008000   ; qtot 28.685225
 1374         h2     27    ccc    H32   1374 0.12178000   1.008000   ; qtot 28.807005
 1375         oh     27    ccc    O10   1375 -0.56972000  16.000000   ; qtot 28.237285
 1376         oh     27    ccc    O11   1376 -0.57772000  16.000000   ; qtot 27.659565
 1377         c3     27    ccc    C22   1377 0.14548000  12.010000   ; qtot 27.805045
 1378         ho     27    ccc    H33   1378 0.40508000   1.008000   ; qtot 28.210125
 1379         hn     27    ccc    H34   1379 0.31758000   1.008000   ; qtot 28.527705
 1380         h1     27    ccc    H35   1380 0.06278000   1.008000   ; qtot 28.590485
 1381         h1     27    ccc    H36   1381 0.06278000   1.008000   ; qtot 28.653265
 1382         oh     27    ccc    O12   1382 -0.59472000  16.000000   ; qtot 28.058545
 1383         ho     27    ccc    H37   1383 0.41908000   1.008000   ; qtot 28.477625
 1384         os     27    ccc    O13   1384 -0.44552000  16.000000   ; qtot 28.032105
 1385         ho     27    ccc    H38   1385 0.41908000   1.008000   ; qtot 28.451185
 1386         h1     27    ccc    H39   1386 0.08578000   1.008000   ; qtot 28.536965
 1387         oh     27    ccc     O5   1387 -0.58672000  16.000000   ; qtot 27.950245
 1388         ho     27    ccc    H40   1388 0.41908000   1.008000   ; qtot 28.369325
 1389         n3     27    ccc     N4   1389 -0.54282000  14.010000   ; qtot 27.826505
 1390         hn     27    ccc    H41   1390 0.17125500   1.008000   ; qtot 27.997760
; residue   28 ccc rtp ccc q 1.0
 1391          n     28    ccc     N1   1391 -0.33303000  14.010000   ; qtot 27.664730
 1392         hn     28    ccc     H4   1392 0.25916100   1.008000   ; qtot 27.923891
 1393         c3     28    ccc     C3   1393 -0.03328100  12.010000   ; qtot 27.890610
 1394         h1     28    ccc     H5   1394 0.10618100   1.008000   ; qtot 27.996791
 1395         c3     28    ccc     C4   1395 -0.02083000  12.010000   ; qtot 27.975961
 1396         h1     28    ccc     H6   1396 0.10618100   1.008000   ; qtot 28.082142
 1397         h1     28    ccc     H7   1397 0.07988000   1.008000   ; qtot 28.162022
 1398         h1     28    ccc     H8   1398 0.07988000   1.008000   ; qtot 28.241902
 1399         n4     28    ccc     N2   1399 -0.02747900  14.010000   ; qtot 28.214423
 1400         c3     28    ccc     C5   1400 -0.05097600  12.010000   ; qtot 28.163447
 1401         c3     28    ccc     C6   1401 -0.05097600  12.010000   ; qtot 28.112471
 1402         h1     28    ccc     H9   1402 0.11563300   1.008000   ; qtot 28.228104
 1403         c3     28    ccc     C7   1403 -0.18457900  12.010000   ; qtot 28.043525
 1404         h1     28    ccc    H10   1404 0.11563300   1.008000   ; qtot 28.159158
 1405         hc     28    ccc    H11   1405 0.08347900   1.008000   ; qtot 28.242637
 1406         hc     28    ccc    H12   1406 0.08347900   1.008000   ; qtot 28.326116
 1407          c     28    ccc     C8   1407 0.67254400  12.010000   ; qtot 28.998660
 1408          o     28    ccc     O2   1408 -0.52917200  16.000000   ; qtot 28.469488
 1409         h1     28    ccc    H13   1409 0.11563300   1.008000   ; qtot 28.585121
 1410         h1     28    ccc    H14   1410 0.11563300   1.008000   ; qtot 28.700754
 1411         c3     28    ccc     C9   1411 -0.18457900  12.010000   ; qtot 28.516175
 1412         hc     28    ccc    H15   1412 0.08347900   1.008000   ; qtot 28.599654
 1413         hc     28    ccc    H16   1413 0.08347900   1.008000   ; qtot 28.683133
 1414          c     28    ccc    C10   1414 0.67254400  12.010000   ; qtot 29.355677
 1415          o     28    ccc     O4   1415 -0.52917200  16.000000   ; qtot 28.826505
 1416         c3     28    ccc    C11   1416 0.08518000  12.010000   ; qtot 28.911685
 1417         c3     28    ccc    C12   1417 0.07918000  12.010000   ; qtot 28.990865
 1418         h1     28    ccc    H17   1418 0.06978000   1.008000   ; qtot 29.060645
 1419         c3     28    ccc    C13   1419 0.07918000  12.010000   ; qtot 29.139825
 1420         c3     28    ccc    C14   1420 0.03578000  12.010000   ; qtot 29.175605
 1421         c3     28    ccc    C15   1421 0.33498000  12.010000   ; qtot 29.510585
 1422         h1     28    ccc    H18   1422 0.06178000   1.008000   ; qtot 29.572365
 1423         h1     28    ccc    H19   1423 0.11278000   1.008000   ; qtot 29.685145
 1424         h2     28    ccc    H20   1424 0.12178000   1.008000   ; qtot 29.806925
 1425         oh     28    ccc     O1   1425 -0.56972000  16.000000   ; qtot 29.237205
 1426         oh     28    ccc     O6   1426 -0.57772000  16.000000   ; qtot 28.659485
 1427         c3     28    ccc    C16   1427 0.14548000  12.010000   ; qtot 28.804965
 1428         ho     28    ccc    H21   1428 0.40508000   1.008000   ; qtot 29.210045
 1429         hn     28    ccc    H22   1429 0.31758000   1.008000   ; qtot 29.527625
 1430         h1     28    ccc    H23   1430 0.06278000   1.008000   ; qtot 29.590405
 1431         h1     28    ccc    H24   1431 0.06278000   1.008000   ; qtot 29.653185
 1432         oh     28    ccc     O7   1432 -0.59472000  16.000000   ; qtot 29.058465
 1433         ho     28    ccc    H25   1433 0.41908000   1.008000   ; qtot 29.477545
 1434         os     28    ccc     O8   1434 -0.44552000  16.000000   ; qtot 29.032025
 1435         ho     28    ccc    H26   1435 0.41908000   1.008000   ; qtot 29.451105
 1436         h1     28    ccc    H27   1436 0.08578000   1.008000   ; qtot 29.536885
 1437         oh     28    ccc     O9   1437 -0.58672000  16.000000   ; qtot 28.950165
 1438         ho     28    ccc    H28   1438 0.41908000   1.008000   ; qtot 29.369245
 1439         n3     28    ccc     N3   1439 -0.54282000  14.010000   ; qtot 28.826425
 1440         c3     28    ccc    C17   1440 0.08518000  12.010000   ; qtot 28.911605
 1441         c3     28    ccc    C18   1441 0.07918000  12.010000   ; qtot 28.990785
 1442         h1     28    ccc    H29   1442 0.06978000   1.008000   ; qtot 29.060564
 1443         c3     28    ccc    C19   1443 0.07918000  12.010000   ; qtot 29.139744
 1444         c3     28    ccc    C20   1444 0.03578000  12.010000   ; qtot 29.175524
 1445         c3     28    ccc    C21   1445 0.33498000  12.010000   ; qtot 29.510504
 1446         h1     28    ccc    H30   1446 0.06178000   1.008000   ; qtot 29.572284
 1447         h1     28    ccc    H31   1447 0.11278000   1.008000   ; qtot 29.685064
 1448         h2     28    ccc    H32   1448 0.12178000   1.008000   ; qtot 29.806844
 1449         oh     28    ccc    O10   1449 -0.56972000  16.000000   ; qtot 29.237124
 1450         oh     28    ccc    O11   1450 -0.57772000  16.000000   ; qtot 28.659404
 1451         c3     28    ccc    C22   1451 0.14548000  12.010000   ; qtot 28.804884
 1452         ho     28    ccc    H33   1452 0.40508000   1.008000   ; qtot 29.209964
 1453         hn     28    ccc    H34   1453 0.31758000   1.008000   ; qtot 29.527544
 1454         h1     28    ccc    H35   1454 0.06278000   1.008000   ; qtot 29.590324
 1455         h1     28    ccc    H36   1455 0.06278000   1.008000   ; qtot 29.653104
 1456         oh     28    ccc    O12   1456 -0.59472000  16.000000   ; qtot 29.058384
 1457         ho     28    ccc    H37   1457 0.41908000   1.008000   ; qtot 29.477464
 1458         os     28    ccc    O13   1458 -0.44552000  16.000000   ; qtot 29.031944
 1459         ho     28    ccc    H38   1459 0.41908000   1.008000   ; qtot 29.451024
 1460         h1     28    ccc    H39   1460 0.08578000   1.008000   ; qtot 29.536804
 1461         oh     28    ccc     O5   1461 -0.58672000  16.000000   ; qtot 28.950084
 1462         ho     28    ccc    H40   1462 0.41908000   1.008000   ; qtot 29.369164
 1463         n3     28    ccc     N4   1463 -0.54282000  14.010000   ; qtot 28.826344
 1464         hn     28    ccc    H41   1464 0.17125500   1.008000   ; qtot 28.997599
; residue   29 ccc rtp ccc q 1.0
 1465          n     29    ccc     N1   1465 -0.33303000  14.010000   ; qtot 28.664569
 1466         hn     29    ccc     H4   1466 0.25916100   1.008000   ; qtot 28.923730
 1467         c3     29    ccc     C3   1467 -0.03328100  12.010000   ; qtot 28.890449
 1468         h1     29    ccc     H5   1468 0.10618100   1.008000   ; qtot 28.996630
 1469         c3     29    ccc     C4   1469 -0.02083000  12.010000   ; qtot 28.975800
 1470         h1     29    ccc     H6   1470 0.10618100   1.008000   ; qtot 29.081981
 1471         h1     29    ccc     H7   1471 0.07988000   1.008000   ; qtot 29.161861
 1472         h1     29    ccc     H8   1472 0.07988000   1.008000   ; qtot 29.241741
 1473         n4     29    ccc     N2   1473 -0.02747900  14.010000   ; qtot 29.214262
 1474         c3     29    ccc     C5   1474 -0.05097600  12.010000   ; qtot 29.163286
 1475         c3     29    ccc     C6   1475 -0.05097600  12.010000   ; qtot 29.112310
 1476         h1     29    ccc     H9   1476 0.11563300   1.008000   ; qtot 29.227943
 1477         c3     29    ccc     C7   1477 -0.18457900  12.010000   ; qtot 29.043364
 1478         h1     29    ccc    H10   1478 0.11563300   1.008000   ; qtot 29.158997
 1479         hc     29    ccc    H11   1479 0.08347900   1.008000   ; qtot 29.242476
 1480         hc     29    ccc    H12   1480 0.08347900   1.008000   ; qtot 29.325955
 1481          c     29    ccc     C8   1481 0.67254400  12.010000   ; qtot 29.998499
 1482          o     29    ccc     O2   1482 -0.52917200  16.000000   ; qtot 29.469327
 1483         h1     29    ccc    H13   1483 0.11563300   1.008000   ; qtot 29.584960
 1484         h1     29    ccc    H14   1484 0.11563300   1.008000   ; qtot 29.700593
 1485         c3     29    ccc     C9   1485 -0.18457900  12.010000   ; qtot 29.516014
 1486         hc     29    ccc    H15   1486 0.08347900   1.008000   ; qtot 29.599493
 1487         hc     29    ccc    H16   1487 0.08347900   1.008000   ; qtot 29.682972
 1488          c     29    ccc    C10   1488 0.67254400  12.010000   ; qtot 30.355516
 1489          o     29    ccc     O4   1489 -0.52917200  16.000000   ; qtot 29.826344
 1490         c3     29    ccc    C11   1490 0.08518000  12.010000   ; qtot 29.911524
 1491         c3     29    ccc    C12   1491 0.07918000  12.010000   ; qtot 29.990704
 1492         h1     29    ccc    H17   1492 0.06978000   1.008000   ; qtot 30.060484
 1493         c3     29    ccc    C13   1493 0.07918000  12.010000   ; qtot 30.139664
 1494         c3     29    ccc    C14   1494 0.03578000  12.010000   ; qtot 30.175444
 1495         c3     29    ccc    C15   1495 0.33498000  12.010000   ; qtot 30.510424
 1496         h1     29    ccc    H18   1496 0.06178000   1.008000   ; qtot 30.572204
 1497         h1     29    ccc    H19   1497 0.11278000   1.008000   ; qtot 30.684984
 1498         h2     29    ccc    H20   1498 0.12178000   1.008000   ; qtot 30.806764
 1499         oh     29    ccc     O1   1499 -0.56972000  16.000000   ; qtot 30.237044
 1500         oh     29    ccc     O6   1500 -0.57772000  16.000000   ; qtot 29.659324
 1501         c3     29    ccc    C16   1501 0.14548000  12.010000   ; qtot 29.804804
 1502         ho     29    ccc    H21   1502 0.40508000   1.008000   ; qtot 30.209884
 1503         hn     29    ccc    H22   1503 0.31758000   1.008000   ; qtot 30.527464
 1504         h1     29    ccc    H23   1504 0.06278000   1.008000   ; qtot 30.590244
 1505         h1     29    ccc    H24   1505 0.06278000   1.008000   ; qtot 30.653024
 1506         oh     29    ccc     O7   1506 -0.59472000  16.000000   ; qtot 30.058304
 1507         ho     29    ccc    H25   1507 0.41908000   1.008000   ; qtot 30.477384
 1508         os     29    ccc     O8   1508 -0.44552000  16.000000   ; qtot 30.031864
 1509         ho     29    ccc    H26   1509 0.41908000   1.008000   ; qtot 30.450944
 1510         h1     29    ccc    H27   1510 0.08578000   1.008000   ; qtot 30.536724
 1511         oh     29    ccc     O9   1511 -0.58672000  16.000000   ; qtot 29.950004
 1512         ho     29    ccc    H28   1512 0.41908000   1.008000   ; qtot 30.369084
 1513         n3     29    ccc     N3   1513 -0.54282000  14.010000   ; qtot 29.826264
 1514         c3     29    ccc    C17   1514 0.08518000  12.010000   ; qtot 29.911444
 1515         c3     29    ccc    C18   1515 0.07918000  12.010000   ; qtot 29.990624
 1516         h1     29    ccc    H29   1516 0.06978000   1.008000   ; qtot 30.060404
 1517         c3     29    ccc    C19   1517 0.07918000  12.010000   ; qtot 30.139584
 1518         c3     29    ccc    C20   1518 0.03578000  12.010000   ; qtot 30.175364
 1519         c3     29    ccc    C21   1519 0.33498000  12.010000   ; qtot 30.510344
 1520         h1     29    ccc    H30   1520 0.06178000   1.008000   ; qtot 30.572124
 1521         h1     29    ccc    H31   1521 0.11278000   1.008000   ; qtot 30.684904
 1522         h2     29    ccc    H32   1522 0.12178000   1.008000   ; qtot 30.806684
 1523         oh     29    ccc    O10   1523 -0.56972000  16.000000   ; qtot 30.236964
 1524         oh     29    ccc    O11   1524 -0.57772000  16.000000   ; qtot 29.659244
 1525         c3     29    ccc    C22   1525 0.14548000  12.010000   ; qtot 29.804724
 1526         ho     29    ccc    H33   1526 0.40508000   1.008000   ; qtot 30.209804
 1527         hn     29    ccc    H34   1527 0.31758000   1.008000   ; qtot 30.527384
 1528         h1     29    ccc    H35   1528 0.06278000   1.008000   ; qtot 30.590164
 1529         h1     29    ccc    H36   1529 0.06278000   1.008000   ; qtot 30.652944
 1530         oh     29    ccc    O12   1530 -0.59472000  16.000000   ; qtot 30.058224
 1531         ho     29    ccc    H37   1531 0.41908000   1.008000   ; qtot 30.477304
 1532         os     29    ccc    O13   1532 -0.44552000  16.000000   ; qtot 30.031784
 1533         ho     29    ccc    H38   1533 0.41908000   1.008000   ; qtot 30.450864
 1534         h1     29    ccc    H39   1534 0.08578000   1.008000   ; qtot 30.536644
 1535         oh     29    ccc     O5   1535 -0.58672000  16.000000   ; qtot 29.949924
 1536         ho     29    ccc    H40   1536 0.41908000   1.008000   ; qtot 30.369004
 1537         n3     29    ccc     N4   1537 -0.54282000  14.010000   ; qtot 29.826184
 1538         hn     29    ccc    H41   1538 0.17125500   1.008000   ; qtot 29.997439

[ bonds ]
;    ai     aj funct         c0         c1         c2         c3
      1      2     1   0.15110 237065.440000
      1      7     1   0.15110 237065.440000
      1      8     1   0.15110 237065.440000
      2      3     1   0.15375 251793.120000
      3      4     1   0.15110 237065.440000
      4      5     1   0.15110 237065.440000
      4      6     1   0.15110 237065.440000
      5     11     1   0.15375 251793.120000
      6      9     1   0.15375 251793.120000
      7     13     1   0.15375 251793.120000
      8     15     1   0.15375 251793.120000
      9     10     1   0.15241 261918.400000
     10     18     1   0.12183 533627.360000
     10     52     1   0.13789 357815.680000
     11     12     1   0.15241 261918.400000
     12     17     1   0.12183 533627.360000
     12     78     1   0.13789 357815.680000
     13     14     1   0.15241 261918.400000
     14     20     1   0.12183 533627.360000
     14    104     1   0.13789 357815.680000
     15     16     1   0.15241 261918.400000
     16     19     1   0.12183 533627.360000
     16    130     1   0.13789 357815.680000
     43     44     1   0.15110 237065.440000
     43     45     1   0.15110 237065.440000
     43     50     1   0.15110 237065.440000
     44     46     1   0.15375 251793.120000
     45     48     1   0.15375 251793.120000
     46     47     1   0.15241 261918.400000
     47     53     1   0.12183 533627.360000
     47    156     1   0.13789 357815.680000
     48     49     1   0.15241 261918.400000
     49     54     1   0.12183 533627.360000
     49    182     1   0.13789 357815.680000
     50     51     1   0.15375 251793.120000
     51     52     1   0.14619 275056.160000
     69     70     1   0.15110 237065.440000
     69     71     1   0.15110 237065.440000
     69     76     1   0.15110 237065.440000
     70     72     1   0.15375 251793.120000
     71     74     1   0.15375 251793.120000
     72     73     1   0.15241 261918.400000
     73     79     1   0.12183 533627.360000
     73    208     1   0.13789 357815.680000
     74     75     1   0.15241 261918.400000
     75     80     1   0.12183 533627.360000
     75    234     1   0.13789 357815.680000
     76     77     1   0.15375 251793.120000
     77     78     1   0.14619 275056.160000
     95     96     1   0.15110 237065.440000
     95     97     1   0.15110 237065.440000
     95    102     1   0.15110 237065.440000
     96     98     1   0.15375 251793.120000
     97    100     1   0.15375 251793.120000
     98     99     1   0.15241 261918.400000
     99    105     1   0.12183 533627.360000
     99    260     1   0.13789 357815.680000
    100    101     1   0.15241 261918.400000
    101    106     1   0.12183 533627.360000
    101    286     1   0.13789 357815.680000
    102    103     1   0.15375 251793.120000
    103    104     1   0.14619 275056.160000
    121    122     1   0.15110 237065.440000
    121    123     1   0.15110 237065.440000
    121    128     1   0.15110 237065.440000
    122    124     1   0.15375 251793.120000
    123    126     1   0.15375 251793.120000
    124    125     1   0.15241 261918.400000
    125    131     1   0.12183 533627.360000
    125    312     1   0.13789 357815.680000
    126    127     1   0.15241 261918.400000
    127    132     1   0.12183 533627.360000
    127    338     1   0.13789 357815.680000
    128    129     1   0.15375 251793.120000
    129    130     1   0.14619 275056.160000
    147    148     1   0.15110 237065.440000
    147    149     1   0.15110 237065.440000
    147    154     1   0.15110 237065.440000
    148    150     1   0.15375 251793.120000
    149    152     1   0.15375 251793.120000
    150    151     1   0.15241 261918.400000
    151    355     1   0.13789 357815.680000
    151    157     1   0.12183 533627.360000
    152    153     1   0.15241 261918.400000
    153    158     1   0.12183 533627.360000
    153    429     1   0.13789 357815.680000
    154    155     1   0.15375 251793.120000
    155    156     1   0.14619 275056.160000
    173    174     1   0.15110 237065.440000
    173    175     1   0.15110 237065.440000
    173    180     1   0.15110 237065.440000
    174    176     1   0.15375 251793.120000
    175    178     1   0.15375 251793.120000
    176    177     1   0.15241 261918.400000
    177    503     1   0.13789 357815.680000
    177    183     1   0.12183 533627.360000
    178    179     1   0.15241 261918.400000
    179    184     1   0.12183 533627.360000
    179    577     1   0.13789 357815.680000
    180    181     1   0.15375 251793.120000
    181    182     1   0.14619 275056.160000
    199    200     1   0.15110 237065.440000
    199    201     1   0.15110 237065.440000
    199    206     1   0.15110 237065.440000
    200    202     1   0.15375 251793.120000
    201    204     1   0.15375 251793.120000
    202    203     1   0.15241 261918.400000
    203    651     1   0.13789 357815.680000
    203    209     1   0.12183 533627.360000
    204    205     1   0.15241 261918.400000
    205    210     1   0.12183 533627.360000
    205    725     1   0.13789 357815.680000
    206    207     1   0.15375 251793.120000
    207    208     1   0.14619 275056.160000
    225    226     1   0.15110 237065.440000
    225    227     1   0.15110 237065.440000
    225    232     1   0.15110 237065.440000
    226    228     1   0.15375 251793.120000
    227    230     1   0.15375 251793.120000
    228    229     1   0.15241 261918.400000
    229    799     1   0.13789 357815.680000
    229    235     1   0.12183 533627.360000
    230    231     1   0.15241 261918.400000
    231    236     1   0.12183 533627.360000
    231    873     1   0.13789 357815.680000
    232    233     1   0.15375 251793.120000
    233    234     1   0.14619 275056.160000
    251    252     1   0.15110 237065.440000
    251    253     1   0.15110 237065.440000
    251    258     1   0.15110 237065.440000
    252    254     1   0.15375 251793.120000
    253    256     1   0.15375 251793.120000
    254    255     1   0.15241 261918.400000
    255    947     1   0.13789 357815.680000
    255    261     1   0.12183 533627.360000
    256    257     1   0.15241 261918.400000
    257    262     1   0.12183 533627.360000
    257   1021     1   0.13789 357815.680000
    258    259     1   0.15375 251793.120000
    259    260     1   0.14619 275056.160000
    277    278     1   0.15110 237065.440000
    277    279     1   0.15110 237065.440000
    277    284     1   0.15110 237065.440000
    278    280     1   0.15375 251793.120000
    279    282     1   0.15375 251793.120000
    280    281     1   0.15241 261918.400000
    281   1095     1   0.13789 357815.680000
    281    287     1   0.12183 533627.360000
    282    283     1   0.15241 261918.400000
    283    288     1   0.12183 533627.360000
    283   1169     1   0.13789 357815.680000
    284    285     1   0.15375 251793.120000
    285    286     1   0.14619 275056.160000
    303    304     1   0.15110 237065.440000
    303    305     1   0.15110 237065.440000
    303    310     1   0.15110 237065.440000
    304    306     1   0.15375 251793.120000
    305    308     1   0.15375 251793.120000
    306    307     1   0.15241 261918.400000
    307   1243     1   0.13789 357815.680000
    307    313     1   0.12183 533627.360000
    308    309     1   0.15241 261918.400000
    309    314     1   0.12183 533627.360000
    309   1317     1   0.13789 357815.680000
    310    311     1   0.15375 251793.120000
    311    312     1   0.14619 275056.160000
    329    330     1   0.15110 237065.440000
    329    331     1   0.15110 237065.440000
    329    336     1   0.15110 237065.440000
    330    332     1   0.15375 251793.120000
    331    334     1   0.15375 251793.120000
    332    333     1   0.15241 261918.400000
    333   1391     1   0.13789 357815.680000
    333    339     1   0.12183 533627.360000
    334    335     1   0.15241 261918.400000
    335   1465     1   0.13789 357815.680000
    335    340     1   0.12183 533627.360000
    336    337     1   0.15375 251793.120000
    337    338     1   0.14619 275056.160000
    355    357     1   0.14619 275056.160000
    357    359     1   0.15375 251793.120000
    359    363     1   0.15110 237065.440000
    363    364     1   0.15110 237065.440000
    363    365     1   0.15110 237065.440000
    364    375     1   0.15375 251793.120000
    365    367     1   0.15375 251793.120000
    367    371     1   0.15241 261918.400000
    371    372     1   0.12183 533627.360000
    371    403     1   0.13400 406935.840000
    375    378     1   0.15241 261918.400000
    378    379     1   0.12183 533627.360000
    378    427     1   0.13400 406935.840000
    380    381     1   0.15375 251793.120000
    380    391     1   0.15375 251793.120000
    380    398     1   0.14316 258236.480000
    381    383     1   0.15375 251793.120000
    381    401     1   0.14233 265014.560000
    383    384     1   0.15375 251793.120000
    383    390     1   0.14233 265014.560000
    384    385     1   0.15375 251793.120000
    384    403     1   0.14647 272713.120000
    385    389     1   0.14233 265014.560000
    385    398     1   0.14316 258236.480000
    391    396     1   0.14233 265014.560000
    404    405     1   0.15375 251793.120000
    404    415     1   0.15375 251793.120000
    404    422     1   0.14316 258236.480000
    405    407     1   0.15375 251793.120000
    405    425     1   0.14233 265014.560000
    407    408     1   0.15375 251793.120000
    407    414     1   0.14233 265014.560000
    408    409     1   0.15375 251793.120000
    408    427     1   0.14647 272713.120000
    409    413     1   0.14233 265014.560000
    409    422     1   0.14316 258236.480000
    415    420     1   0.14233 265014.560000
    429    431     1   0.14619 275056.160000
    431    433     1   0.15375 251793.120000
    433    437     1   0.15110 237065.440000
    437    438     1   0.15110 237065.440000
    437    439     1   0.15110 237065.440000
    438    449     1   0.15375 251793.120000
    439    441     1   0.15375 251793.120000
    441    445     1   0.15241 261918.400000
    445    446     1   0.12183 533627.360000
    445    477     1   0.13400 406935.840000
    449    452     1   0.15241 261918.400000
    452    453     1   0.12183 533627.360000
    452    501     1   0.13400 406935.840000
    454    455     1   0.15375 251793.120000
    454    465     1   0.15375 251793.120000
    454    472     1   0.14316 258236.480000
    455    457     1   0.15375 251793.120000
    455    475     1   0.14233 265014.560000
    457    458     1   0.15375 251793.120000
    457    464     1   0.14233 265014.560000
    458    459     1   0.15375 251793.120000
    458    477     1   0.14647 272713.120000
    459    463     1   0.14233 265014.560000
    459    472     1   0.14316 258236.480000
    465    470     1   0.14233 265014.560000
    478    479     1   0.15375 251793.120000
    478    489     1   0.15375 251793.120000
    478    496     1   0.14316 258236.480000
    479    481     1   0.15375 251793.120000
    479    499     1   0.14233 265014.560000
    481    482     1   0.15375 251793.120000
    481    488     1   0.14233 265014.560000
    482    483     1   0.15375 251793.120000
    482    501     1   0.14647 272713.120000
    483    487     1   0.14233 265014.560000
    483    496     1   0.14316 258236.480000
    489    494     1   0.14233 265014.560000
    503    505     1   0.14619 275056.160000
    505    507     1   0.15375 251793.120000
    507    511     1   0.15110 237065.440000
    511    512     1   0.15110 237065.440000
    511    513     1   0.15110 237065.440000
    512    523     1   0.15375 251793.120000
    513    515     1   0.15375 251793.120000
    515    519     1   0.15241 261918.400000
    519    520     1   0.12183 533627.360000
    519    551     1   0.13400 406935.840000
    523    526     1   0.15241 261918.400000
    526    527     1   0.12183 533627.360000
    526    575     1   0.13400 406935.840000
    528    529     1   0.15375 251793.120000
    528    539     1   0.15375 251793.120000
    528    546     1   0.14316 258236.480000
    529    531     1   0.15375 251793.120000
    529    549     1   0.14233 265014.560000
    531    532     1   0.15375 251793.120000
    531    538     1   0.14233 265014.560000
    532    533     1   0.15375 251793.120000
    532    551     1   0.14647 272713.120000
    533    537     1   0.14233 265014.560000
    533    546     1   0.14316 258236.480000
    539    544     1   0.14233 265014.560000
    552    553     1   0.15375 251793.120000
    552    563     1   0.15375 251793.120000
    552    570     1   0.14316 258236.480000
    553    555     1   0.15375 251793.120000
    553    573     1   0.14233 265014.560000
    555    556     1   0.15375 251793.120000
    555    562     1   0.14233 265014.560000
    556    557     1   0.15375 251793.120000
    556    575     1   0.14647 272713.120000
    557    561     1   0.14233 265014.560000
    557    570     1   0.14316 258236.480000
    563    568     1   0.14233 265014.560000
    577    579     1   0.14619 275056.160000
    579    581     1   0.15375 251793.120000
    581    585     1   0.15110 237065.440000
    585    586     1   0.15110 237065.440000
    585    587     1   0.15110 237065.440000
    586    597     1   0.15375 251793.120000
    587    589     1   0.15375 251793.120000
    589    593     1   0.15241 261918.400000
    593    594     1   0.12183 533627.360000
    593    625     1   0.13400 406935.840000
    597    600     1   0.15241 261918.400000
    600    601     1   0.12183 533627.360000
    600    649     1   0.13400 406935.840000
    602    603     1   0.15375 251793.120000
    602    613     1   0.15375 251793.120000
    602    620     1   0.14316 258236.480000
    603    605     1   0.15375 251793.120000
    603    623     1   0.14233 265014.560000
    605    606     1   0.15375 251793.120000
    605    612     1   0.14233 265014.560000
    606    607     1   0.15375 251793.120000
    606    625     1   0.14647 272713.120000
    607    611     1   0.14233 265014.560000
    607    620     1   0.14316 258236.480000
    613    618     1   0.14233 265014.560000
    626    627     1   0.15375 251793.120000
    626    637     1   0.15375 251793.120000
    626    644     1   0.14316 258236.480000
    627    629     1   0.15375 251793.120000
    627    647     1   0.14233 265014.560000
    629    630     1   0.15375 251793.120000
    629    636     1   0.14233 265014.560000
    630    631     1   0.15375 251793.120000
    630    649     1   0.14647 272713.120000
    631    635     1   0.14233 265014.560000
    631    644     1   0.14316 258236.480000
    637    642     1   0.14233 265014.560000
    651    653     1   0.14619 275056.160000
    653    655     1   0.15375 251793.120000
    655    659     1   0.15110 237065.440000
    659    660     1   0.15110 237065.440000
    659    661     1   0.15110 237065.440000
    660    671     1   0.15375 251793.120000
    661    663     1   0.15375 251793.120000
    663    667     1   0.15241 261918.400000
    667    668     1   0.12183 533627.360000
    667    699     1   0.13400 406935.840000
    671    674     1   0.15241 261918.400000
    674    675     1   0.12183 533627.360000
    674    723     1   0.13400 406935.840000
    676    677     1   0.15375 251793.120000
    676    687     1   0.15375 251793.120000
    676    694     1   0.14316 258236.480000
    677    679     1   0.15375 251793.120000
    677    697     1   0.14233 265014.560000
    679    680     1   0.15375 251793.120000
    679    686     1   0.14233 265014.560000
    680    681     1   0.15375 251793.120000
    680    699     1   0.14647 272713.120000
    681    685     1   0.14233 265014.560000
    681    694     1   0.14316 258236.480000
    687    692     1   0.14233 265014.560000
    700    701     1   0.15375 251793.120000
    700    711     1   0.15375 251793.120000
    700    718     1   0.14316 258236.480000
    701    703     1   0.15375 251793.120000
    701    721     1   0.14233 265014.560000
    703    704     1   0.15375 251793.120000
    703    710     1   0.14233 265014.560000
    704    705     1   0.15375 251793.120000
    704    723     1   0.14647 272713.120000
    705    709     1   0.14233 265014.560000
    705    718     1   0.14316 258236.480000
    711    716     1   0.14233 265014.560000
    725    727     1   0.14619 275056.160000
    727    729     1   0.15375 251793.120000
    729    733     1   0.15110 237065.440000
    733    734     1   0.15110 237065.440000
    733    735     1   0.15110 237065.440000
    734    745     1   0.15375 251793.120000
    735    737     1   0.15375 251793.120000
    737    741     1   0.15241 261918.400000
    741    742     1   0.12183 533627.360000
    741    773     1   0.13400 406935.840000
    745    748     1   0.15241 261918.400000
    748    749     1   0.12183 533627.360000
    748    797     1   0.13400 406935.840000
    750    751     1   0.15375 251793.120000
    750    761     1   0.15375 251793.120000
    750    768     1   0.14316 258236.480000
    751    753     1   0.15375 251793.120000
    751    771     1   0.14233 265014.560000
    753    754     1   0.15375 251793.120000
    753    760     1   0.14233 265014.560000
    754    755     1   0.15375 251793.120000
    754    773     1   0.14647 272713.120000
    755    759     1   0.14233 265014.560000
    755    768     1   0.14316 258236.480000
    761    766     1   0.14233 265014.560000
    774    775     1   0.15375 251793.120000
    774    785     1   0.15375 251793.120000
    774    792     1   0.14316 258236.480000
    775    777     1   0.15375 251793.120000
    775    795     1   0.14233 265014.560000
    777    778     1   0.15375 251793.120000
    777    784     1   0.14233 265014.560000
    778    779     1   0.15375 251793.120000
    778    797     1   0.14647 272713.120000
    779    783     1   0.14233 265014.560000
    779    792     1   0.14316 258236.480000
    785    790     1   0.14233 265014.560000
    799    801     1   0.14619 275056.160000
    801    803     1   0.15375 251793.120000
    803    807     1   0.15110 237065.440000
    807    808     1   0.15110 237065.440000
    807    809     1   0.15110 237065.440000
    808    819     1   0.15375 251793.120000
    809    811     1   0.15375 251793.120000
    811    815     1   0.15241 261918.400000
    815    816     1   0.12183 533627.360000
    815    847     1   0.13400 406935.840000
    819    822     1   0.15241 261918.400000
    822    823     1   0.12183 533627.360000
    822    871     1   0.13400 406935.840000
    824    825     1   0.15375 251793.120000
    824    835     1   0.15375 251793.120000
    824    842     1   0.14316 258236.480000
    825    827     1   0.15375 251793.120000
    825    845     1   0.14233 265014.560000
    827    828     1   0.15375 251793.120000
    827    834     1   0.14233 265014.560000
    828    829     1   0.15375 251793.120000
    828    847     1   0.14647 272713.120000
    829    833     1   0.14233 265014.560000
    829    842     1   0.14316 258236.480000
    835    840     1   0.14233 265014.560000
    848    849     1   0.15375 251793.120000
    848    859     1   0.15375 251793.120000
    848    866     1   0.14316 258236.480000
    849    851     1   0.15375 251793.120000
    849    869     1   0.14233 265014.560000
    851    852     1   0.15375 251793.120000
    851    858     1   0.14233 265014.560000
    852    853     1   0.15375 251793.120000
    852    871     1   0.14647 272713.120000
    853    857     1   0.14233 265014.560000
    853    866     1   0.14316 258236.480000
    859    864     1   0.14233 265014.560000
    873    875     1   0.14619 275056.160000
    875    877     1   0.15375 251793.120000
    877    881     1   0.15110 237065.440000
    881    882     1   0.15110 237065.440000
    881    883     1   0.15110 237065.440000
    882    893     1   0.15375 251793.120000
    883    885     1   0.15375 251793.120000
    885    889     1   0.15241 261918.400000
    889    890     1   0.12183 533627.360000
    889    921     1   0.13400 406935.840000
    893    896     1   0.15241 261918.400000
    896    897     1   0.12183 533627.360000
    896    945     1   0.13400 406935.840000
    898    899     1   0.15375 251793.120000
    898    909     1   0.15375 251793.120000
    898    916     1   0.14316 258236.480000
    899    901     1   0.15375 251793.120000
    899    919     1   0.14233 265014.560000
    901    902     1   0.15375 251793.120000
    901    908     1   0.14233 265014.560000
    902    903     1   0.15375 251793.120000
    902    921     1   0.14647 272713.120000
    903    907     1   0.14233 265014.560000
    903    916     1   0.14316 258236.480000
    909    914     1   0.14233 265014.560000
    922    923     1   0.15375 251793.120000
    922    933     1   0.15375 251793.120000
    922    940     1   0.14316 258236.480000
    923    925     1   0.15375 251793.120000
    923    943     1   0.14233 265014.560000
    925    926     1   0.15375 251793.120000
    925    932     1   0.14233 265014.560000
    926    927     1   0.15375 251793.120000
    926    945     1   0.14647 272713.120000
    927    931     1   0.14233 265014.560000
    927    940     1   0.14316 258236.480000
    933    938     1   0.14233 265014.560000
    947    949     1   0.14619 275056.160000
    949    951     1   0.15375 251793.120000
    951    955     1   0.15110 237065.440000
    955    956     1   0.15110 237065.440000
    955    957     1   0.15110 237065.440000
    956    967     1   0.15375 251793.120000
    957    959     1   0.15375 251793.120000
    959    963     1   0.15241 261918.400000
    963    964     1   0.12183 533627.360000
    963    995     1   0.13400 406935.840000
    967    970     1   0.15241 261918.400000
    970    971     1   0.12183 533627.360000
    970   1019     1   0.13400 406935.840000
    972    973     1   0.15375 251793.120000
    972    983     1   0.15375 251793.120000
    972    990     1   0.14316 258236.480000
    973    975     1   0.15375 251793.120000
    973    993     1   0.14233 265014.560000
    975    976     1   0.15375 251793.120000
    975    982     1   0.14233 265014.560000
    976    977     1   0.15375 251793.120000
    976    995     1   0.14647 272713.120000
    977    981     1   0.14233 265014.560000
    977    990     1   0.14316 258236.480000
    983    988     1   0.14233 265014.560000
    996    997     1   0.15375 251793.120000
    996   1007     1   0.15375 251793.120000
    996   1014     1   0.14316 258236.480000
    997    999     1   0.15375 251793.120000
    997   1017     1   0.14233 265014.560000
    999   1000     1   0.15375 251793.120000
    999   1006     1   0.14233 265014.560000
   1000   1001     1   0.15375 251793.120000
   1000   1019     1   0.14647 272713.120000
   1001   1005     1   0.14233 265014.560000
   1001   1014     1   0.14316 258236.480000
   1007   1012     1   0.14233 265014.560000
   1021   1023     1   0.14619 275056.160000
   1023   1025     1   0.15375 251793.120000
   1025   1029     1   0.15110 237065.440000
   1029   1030     1   0.15110 237065.440000
   1029   1031     1   0.15110 237065.440000
   1030   1041     1   0.15375 251793.120000
   1031   1033     1   0.15375 251793.120000
   1033   1037     1   0.15241 261918.400000
   1037   1038     1   0.12183 533627.360000
   1037   1069     1   0.13400 406935.840000
   1041   1044     1   0.15241 261918.400000
   1044   1045     1   0.12183 533627.360000
   1044   1093     1   0.13400 406935.840000
   1046   1047     1   0.15375 251793.120000
   1046   1057     1   0.15375 251793.120000
   1046   1064     1   0.14316 258236.480000
   1047   1049     1   0.15375 251793.120000
   1047   1067     1   0.14233 265014.560000
   1049   1050     1   0.15375 251793.120000
   1049   1056     1   0.14233 265014.560000
   1050   1051     1   0.15375 251793.120000
   1050   1069     1   0.14647 272713.120000
   1051   1055     1   0.14233 265014.560000
   1051   1064     1   0.14316 258236.480000
   1057   1062     1   0.14233 265014.560000
   1070   1071     1   0.15375 251793.120000
   1070   1081     1   0.15375 251793.120000
   1070   1088     1   0.14316 258236.480000
   1071   1073     1   0.15375 251793.120000
   1071   1091     1   0.14233 265014.560000
   1073   1074     1   0.15375 251793.120000
   1073   1080     1   0.14233 265014.560000
   1074   1075     1   0.15375 251793.120000
   1074   1093     1   0.14647 272713.120000
   1075   1079     1   0.14233 265014.560000
   1075   1088     1   0.14316 258236.480000
   1081   1086     1   0.14233 265014.560000
   1095   1097     1   0.14619 275056.160000
   1097   1099     1   0.15375 251793.120000
   1099   1103     1   0.15110 237065.440000
   1103   1104     1   0.15110 237065.440000
   1103   1105     1   0.15110 237065.440000
   1104   1115     1   0.15375 251793.120000
   1105   1107     1   0.15375 251793.120000
   1107   1111     1   0.15241 261918.400000
   1111   1112     1   0.12183 533627.360000
   1111   1143     1   0.13400 406935.840000
   1115   1118     1   0.15241 261918.400000
   1118   1119     1   0.12183 533627.360000
   1118   1167     1   0.13400 406935.840000
   1120   1121     1   0.15375 251793.120000
   1120   1131     1   0.15375 251793.120000
   1120   1138     1   0.14316 258236.480000
   1121   1123     1   0.15375 251793.120000
   1121   1141     1   0.14233 265014.560000
   1123   1124     1   0.15375 251793.120000
   1123   1130     1   0.14233 265014.560000
   1124   1125     1   0.15375 251793.120000
   1124   1143     1   0.14647 272713.120000
   1125   1129     1   0.14233 265014.560000
   1125   1138     1   0.14316 258236.480000
   1131   1136     1   0.14233 265014.560000
   1144   1145     1   0.15375 251793.120000
   1144   1155     1   0.15375 251793.120000
   1144   1162     1   0.14316 258236.480000
   1145   1147     1   0.15375 251793.120000
   1145   1165     1   0.14233 265014.560000
   1147   1148     1   0.15375 251793.120000
   1147   1154     1   0.14233 265014.560000
   1148   1149     1   0.15375 251793.120000
   1148   1167     1   0.14647 272713.120000
   1149   1153     1   0.14233 265014.560000
   1149   1162     1   0.14316 258236.480000
   1155   1160     1   0.14233 265014.560000
   1169   1171     1   0.14619 275056.160000
   1171   1173     1   0.15375 251793.120000
   1173   1177     1   0.15110 237065.440000
   1177   1178     1   0.15110 237065.440000
   1177   1179     1   0.15110 237065.440000
   1178   1189     1   0.15375 251793.120000
   1179   1181     1   0.15375 251793.120000
   1181   1185     1   0.15241 261918.400000
   1185   1186     1   0.12183 533627.360000
   1185   1217     1   0.13400 406935.840000
   1189   1192     1   0.15241 261918.400000
   1192   1193     1   0.12183 533627.360000
   1192   1241     1   0.13400 406935.840000
   1194   1195     1   0.15375 251793.120000
   1194   1205     1   0.15375 251793.120000
   1194   1212     1   0.14316 258236.480000
   1195   1197     1   0.15375 251793.120000
   1195   1215     1   0.14233 265014.560000
   1197   1198     1   0.15375 251793.120000
   1197   1204     1   0.14233 265014.560000
   1198   1199     1   0.15375 251793.120000
   1198   1217     1   0.14647 272713.120000
   1199   1203     1   0.14233 265014.560000
   1199   1212     1   0.14316 258236.480000
   1205   1210     1   0.14233 265014.560000
   1218   1219     1   0.15375 251793.120000
   1218   1229     1   0.15375 251793.120000
   1218   1236     1   0.14316 258236.480000
   1219   1221     1   0.15375 251793.120000
   1219   1239     1   0.14233 265014.560000
   1221   1222     1   0.15375 251793.120000
   1221   1228     1   0.14233 265014.560000
   1222   1223     1   0.15375 251793.120000
   1222   1241     1   0.14647 272713.120000
   1223   1227     1   0.14233 265014.560000
   1223   1236     1   0.14316 258236.480000
   1229   1234     1   0.14233 265014.560000
   1243   1245     1   0.14619 275056.160000
   1245   1247     1   0.15375 251793.120000
   1247   1251     1   0.15110 237065.440000
   1251   1252     1   0.15110 237065.440000
   1251   1253     1   0.15110 237065.440000
   1252   1263     1   0.15375 251793.120000
   1253   1255     1   0.15375 251793.120000
   1255   1259     1   0.15241 261918.400000
   1259   1260     1   0.12183 533627.360000
   1259   1291     1   0.13400 406935.840000
   1263   1266     1   0.15241 261918.400000
   1266   1267     1   0.12183 533627.360000
   1266   1315     1   0.13400 406935.840000
   1268   1269     1   0.15375 251793.120000
   1268   1279     1   0.15375 251793.120000
   1268   1286     1   0.14316 258236.480000
   1269   1271     1   0.15375 251793.120000
   1269   1289     1   0.14233 265014.560000
   1271   1272     1   0.15375 251793.120000
   1271   1278     1   0.14233 265014.560000
   1272   1273     1   0.15375 251793.120000
   1272   1291     1   0.14647 272713.120000
   1273   1277     1   0.14233 265014.560000
   1273   1286     1   0.14316 258236.480000
   1279   1284     1   0.14233 265014.560000
   1292   1293     1   0.15375 251793.120000
   1292   1303     1   0.15375 251793.120000
   1292   1310     1   0.14316 258236.480000
   1293   1295     1   0.15375 251793.120000
   1293   1313     1   0.14233 265014.560000
   1295   1296     1   0.15375 251793.120000
   1295   1302     1   0.14233 265014.560000
   1296   1297     1   0.15375 251793.120000
   1296   1315     1   0.14647 272713.120000
   1297   1301     1   0.14233 265014.560000
   1297   1310     1   0.14316 258236.480000
   1303   1308     1   0.14233 265014.560000
   1317   1319     1   0.14619 275056.160000
   1319   1321     1   0.15375 251793.120000
   1321   1325     1   0.15110 237065.440000
   1325   1326     1   0.15110 237065.440000
   1325   1327     1   0.15110 237065.440000
   1326   1337     1   0.15375 251793.120000
   1327   1329     1   0.15375 251793.120000
   1329   1333     1   0.15241 261918.400000
   1333   1334     1   0.12183 533627.360000
   1333   1365     1   0.13400 406935.840000
   1337   1340     1   0.15241 261918.400000
   1340   1341     1   0.12183 533627.360000
   1340   1389     1   0.13400 406935.840000
   1342   1343     1   0.15375 251793.120000
   1342   1353     1   0.15375 251793.120000
   1342   1360     1   0.14316 258236.480000
   1343   1345     1   0.15375 251793.120000
   1343   1363     1   0.14233 265014.560000
   1345   1346     1   0.15375 251793.120000
   1345   1352     1   0.14233 265014.560000
   1346   1347     1   0.15375 251793.120000
   1346   1365     1   0.14647 272713.120000
   1347   1351     1   0.14233 265014.560000
   1347   1360     1   0.14316 258236.480000
   1353   1358     1   0.14233 265014.560000
   1366   1367     1   0.15375 251793.120000
   1366   1377     1   0.15375 251793.120000
   1366   1384     1   0.14316 258236.480000
   1367   1369     1   0.15375 251793.120000
   1367   1387     1   0.14233 265014.560000
   1369   1370     1   0.15375 251793.120000
   1369   1376     1   0.14233 265014.560000
   1370   1371     1   0.15375 251793.120000
   1370   1389     1   0.14647 272713.120000
   1371   1375     1   0.14233 265014.560000
   1371   1384     1   0.14316 258236.480000
   1377   1382     1   0.14233 265014.560000
   1391   1393     1   0.14619 275056.160000
   1393   1395     1   0.15375 251793.120000
   1395   1399     1   0.15110 237065.440000
   1399   1400     1   0.15110 237065.440000
   1399   1401     1   0.15110 237065.440000
   1400   1411     1   0.15375 251793.120000
   1401   1403     1   0.15375 251793.120000
   1403   1407     1   0.15241 261918.400000
   1407   1408     1   0.12183 533627.360000
   1407   1439     1   0.13400 406935.840000
   1411   1414     1   0.15241 261918.400000
   1414   1415     1   0.12183 533627.360000
   1414   1463     1   0.13400 406935.840000
   1416   1417     1   0.15375 251793.120000
   1416   1427     1   0.15375 251793.120000
   1416   1434     1   0.14316 258236.480000
   1417   1419     1   0.15375 251793.120000
   1417   1437     1   0.14233 265014.560000
   1419   1420     1   0.15375 251793.120000
   1419   1426     1   0.14233 265014.560000
   1420   1421     1   0.15375 251793.120000
   1420   1439     1   0.14647 272713.120000
   1421   1425     1   0.14233 265014.560000
   1421   1434     1   0.14316 258236.480000
   1427   1432     1   0.14233 265014.560000
   1440   1441     1   0.15375 251793.120000
   1440   1451     1   0.15375 251793.120000
   1440   1458     1   0.14316 258236.480000
   1441   1443     1   0.15375 251793.120000
   1441   1461     1   0.14233 265014.560000
   1443   1444     1   0.15375 251793.120000
   1443   1450     1   0.14233 265014.560000
   1444   1445     1   0.15375 251793.120000
   1444   1463     1   0.14647 272713.120000
   1445   1449     1   0.14233 265014.560000
   1445   1458     1   0.14316 258236.480000
   1451   1456     1   0.14233 265014.560000
   1465   1467     1   0.14619 275056.160000
   1467   1469     1   0.15375 251793.120000
   1469   1473     1   0.15110 237065.440000
   1473   1474     1   0.15110 237065.440000
   1473   1475     1   0.15110 237065.440000
   1474   1485     1   0.15375 251793.120000
   1475   1477     1   0.15375 251793.120000
   1477   1481     1   0.15241 261918.400000
   1481   1482     1   0.12183 533627.360000
   1481   1513     1   0.13400 406935.840000
   1485   1488     1   0.15241 261918.400000
   1488   1489     1   0.12183 533627.360000
   1488   1537     1   0.13400 406935.840000
   1490   1491     1   0.15375 251793.120000
   1490   1501     1   0.15375 251793.120000
   1490   1508     1   0.14316 258236.480000
   1491   1493     1   0.15375 251793.120000
   1491   1511     1   0.14233 265014.560000
   1493   1494     1   0.15375 251793.120000
   1493   1500     1   0.14233 265014.560000
   1494   1495     1   0.15375 251793.120000
   1494   1513     1   0.14647 272713.120000
   1495   1499     1   0.14233 265014.560000
   1495   1508     1   0.14316 258236.480000
   1501   1506     1   0.14233 265014.560000
   1514   1515     1   0.15375 251793.120000
   1514   1525     1   0.15375 251793.120000
   1514   1532     1   0.14316 258236.480000
   1515   1517     1   0.15375 251793.120000
   1515   1535     1   0.14233 265014.560000
   1517   1518     1   0.15375 251793.120000
   1517   1524     1   0.14233 265014.560000
   1518   1519     1   0.15375 251793.120000
   1518   1537     1   0.14647 272713.120000
   1519   1523     1   0.14233 265014.560000
   1519   1532     1   0.14316 258236.480000
   1525   1530     1   0.14233 265014.560000
      1     41     1   0.10304 312293.760000
      2     21     1   0.10910 283424.160000
      2     22     1   0.10910 283424.160000
      3     23     1   0.10910 283424.160000
      3     24     1   0.10910 283424.160000
      4     42     1   0.10304 312293.760000
      5     25     1   0.10910 283424.160000
      5     26     1   0.10910 283424.160000
      6     27     1   0.10910 283424.160000
      6     28     1   0.10910 283424.160000
      7     29     1   0.10910 283424.160000
      7     30     1   0.10910 283424.160000
      8     31     1   0.10910 283424.160000
      8     32     1   0.10910 283424.160000
      9     33     1   0.10969 276646.080000
      9     34     1   0.10969 276646.080000
     11     35     1   0.10969 276646.080000
     11     36     1   0.10969 276646.080000
     13     37     1   0.10969 276646.080000
     13     38     1   0.10969 276646.080000
     15     39     1   0.10969 276646.080000
     15     40     1   0.10969 276646.080000
     43     68     1   0.10304 312293.760000
     44     55     1   0.10910 283424.160000
     44     56     1   0.10910 283424.160000
     45     57     1   0.10910 283424.160000
     45     58     1   0.10910 283424.160000
     46     59     1   0.10969 276646.080000
     46     60     1   0.10969 276646.080000
     48     61     1   0.10969 276646.080000
     48     62     1   0.10969 276646.080000
     50     63     1   0.10910 283424.160000
     50     64     1   0.10910 283424.160000
     51     65     1   0.10969 276646.080000
     51     66     1   0.10969 276646.080000
     52     67     1   0.10129 337397.760000
     69     94     1   0.10304 312293.760000
     70     81     1   0.10910 283424.160000
     70     82     1   0.10910 283424.160000
     71     83     1   0.10910 283424.160000
     71     84     1   0.10910 283424.160000
     72     85     1   0.10969 276646.080000
     72     86     1   0.10969 276646.080000
     74     87     1   0.10969 276646.080000
     74     88     1   0.10969 276646.080000
     76     89     1   0.10910 283424.160000
     76     90     1   0.10910 283424.160000
     77     91     1   0.10969 276646.080000
     77     92     1   0.10969 276646.080000
     78     93     1   0.10129 337397.760000
     95    120     1   0.10304 312293.760000
     96    107     1   0.10910 283424.160000
     96    108     1   0.10910 283424.160000
     97    109     1   0.10910 283424.160000
     97    110     1   0.10910 283424.160000
     98    111     1   0.10969 276646.080000
     98    112     1   0.10969 276646.080000
    100    113     1   0.10969 276646.080000
    100    114     1   0.10969 276646.080000
    102    115     1   0.10910 283424.160000
    102    116     1   0.10910 283424.160000
    103    117     1   0.10969 276646.080000
    103    118     1   0.10969 276646.080000
    104    119     1   0.10129 337397.760000
    121    146     1   0.10304 312293.760000
    122    133     1   0.10910 283424.160000
    122    134     1   0.10910 283424.160000
    123    135     1   0.10910 283424.160000
    123    136     1   0.10910 283424.160000
    124    137     1   0.10969 276646.080000
    124    138     1   0.10969 276646.080000
    126    139     1   0.10969 276646.080000
    126    140     1   0.10969 276646.080000
    128    141     1   0.10910 283424.160000
    128    142     1   0.10910 283424.160000
    129    143     1   0.10969 276646.080000
    129    144     1   0.10969 276646.080000
    130    145     1   0.10129 337397.760000
    147    172     1   0.10304 312293.760000
    148    159     1   0.10910 283424.160000
    148    160     1   0.10910 283424.160000
    149    161     1   0.10910 283424.160000
    149    162     1   0.10910 283424.160000
    150    163     1   0.10969 276646.080000
    150    164     1   0.10969 276646.080000
    152    165     1   0.10969 276646.080000
    152    166     1   0.10969 276646.080000
    154    167     1   0.10910 283424.160000
    154    168     1   0.10910 283424.160000
    155    169     1   0.10969 276646.080000
    155    170     1   0.10969 276646.080000
    156    171     1   0.10129 337397.760000
    173    198     1   0.10304 312293.760000
    174    185     1   0.10910 283424.160000
    174    186     1   0.10910 283424.160000
    175    187     1   0.10910 283424.160000
    175    188     1   0.10910 283424.160000
    176    189     1   0.10969 276646.080000
    176    190     1   0.10969 276646.080000
    178    191     1   0.10969 276646.080000
    178    192     1   0.10969 276646.080000
    180    193     1   0.10910 283424.160000
    180    194     1   0.10910 283424.160000
    181    195     1   0.10969 276646.080000
    181    196     1   0.10969 276646.080000
    182    197     1   0.10129 337397.760000
    199    224     1   0.10304 312293.760000
    200    211     1   0.10910 283424.160000
    200    212     1   0.10910 283424.160000
    201    213     1   0.10910 283424.160000
    201    214     1   0.10910 283424.160000
    202    215     1   0.10969 276646.080000
    202    216     1   0.10969 276646.080000
    204    217     1   0.10969 276646.080000
    204    218     1   0.10969 276646.080000
    206    219     1   0.10910 283424.160000
    206    220     1   0.10910 283424.160000
    207    221     1   0.10969 276646.080000
    207    222     1   0.10969 276646.080000
    208    223     1   0.10129 337397.760000
    225    250     1   0.10304 312293.760000
    226    237     1   0.10910 283424.160000
    226    238     1   0.10910 283424.160000
    227    239     1   0.10910 283424.160000
    227    240     1   0.10910 283424.160000
    228    241     1   0.10969 276646.080000
    228    242     1   0.10969 276646.080000
    230    243     1   0.10969 276646.080000
    230    244     1   0.10969 276646.080000
    232    245     1   0.10910 283424.160000
    232    246     1   0.10910 283424.160000
    233    247     1   0.10969 276646.080000
    233    248     1   0.10969 276646.080000
    234    249     1   0.10129 337397.760000
    251    276     1   0.10304 312293.760000
    252    263     1   0.10910 283424.160000
    252    264     1   0.10910 283424.160000
    253    265     1   0.10910 283424.160000
    253    266     1   0.10910 283424.160000
    254    267     1   0.10969 276646.080000
    254    268     1   0.10969 276646.080000
    256    269     1   0.10969 276646.080000
    256    270     1   0.10969 276646.080000
    258    271     1   0.10910 283424.160000
    258    272     1   0.10910 283424.160000
    259    273     1   0.10969 276646.080000
    259    274     1   0.10969 276646.080000
    260    275     1   0.10129 337397.760000
    277    302     1   0.10304 312293.760000
    278    289     1   0.10910 283424.160000
    278    290     1   0.10910 283424.160000
    279    291     1   0.10910 283424.160000
    279    292     1   0.10910 283424.160000
    280    293     1   0.10969 276646.080000
    280    294     1   0.10969 276646.080000
    282    295     1   0.10969 276646.080000
    282    296     1   0.10969 276646.080000
    284    297     1   0.10910 283424.160000
    284    298     1   0.10910 283424.160000
    285    299     1   0.10969 276646.080000
    285    300     1   0.10969 276646.080000
    286    301     1   0.10129 337397.760000
    303    328     1   0.10304 312293.760000
    304    315     1   0.10910 283424.160000
    304    316     1   0.10910 283424.160000
    305    317     1   0.10910 283424.160000
    305    318     1   0.10910 283424.160000
    306    319     1   0.10969 276646.080000
    306    320     1   0.10969 276646.080000
    308    321     1   0.10969 276646.080000
    308    322     1   0.10969 276646.080000
    310    323     1   0.10910 283424.160000
    310    324     1   0.10910 283424.160000
    311    325     1   0.10969 276646.080000
    311    326     1   0.10969 276646.080000
    312    327     1   0.10129 337397.760000
    329    354     1   0.10304 312293.760000
    330    341     1   0.10910 283424.160000
    330    342     1   0.10910 283424.160000
    331    343     1   0.10910 283424.160000
    331    344     1   0.10910 283424.160000
    332    345     1   0.10969 276646.080000
    332    346     1   0.10969 276646.080000
    334    347     1   0.10969 276646.080000
    334    348     1   0.10969 276646.080000
    336    349     1   0.10910 283424.160000
    336    350     1   0.10910 283424.160000
    337    351     1   0.10969 276646.080000
    337    352     1   0.10969 276646.080000
    338    353     1   0.10129 337397.760000
    355    356     1   0.10129 337397.760000
    357    358     1   0.10969 276646.080000
    357    360     1   0.10969 276646.080000
    359    361     1   0.10969 276646.080000
    359    362     1   0.10969 276646.080000
    363    428     1   0.10304 312293.760000
    364    373     1   0.10969 276646.080000
    364    374     1   0.10969 276646.080000
    365    366     1   0.10969 276646.080000
    365    368     1   0.10969 276646.080000
    367    369     1   0.10969 276646.080000
    367    370     1   0.10969 276646.080000
    375    376     1   0.10969 276646.080000
    375    377     1   0.10969 276646.080000
    380    382     1   0.10969 276646.080000
    381    400     1   0.10969 276646.080000
    383    387     1   0.10969 276646.080000
    384    386     1   0.10969 276646.080000
    385    388     1   0.10961 277566.560000
    389    399     1   0.09730 310787.520000
    390    392     1   0.09730 310787.520000
    391    394     1   0.10969 276646.080000
    391    395     1   0.10969 276646.080000
    393    403     1   0.10190 328360.320000
    396    397     1   0.09730 310787.520000
    401    402     1   0.09730 310787.520000
    404    406     1   0.10969 276646.080000
    405    424     1   0.10969 276646.080000
    407    411     1   0.10969 276646.080000
    408    410     1   0.10969 276646.080000
    409    412     1   0.10961 277566.560000
    413    423     1   0.09730 310787.520000
    414    416     1   0.09730 310787.520000
    415    418     1   0.10969 276646.080000
    415    419     1   0.10969 276646.080000
    417    427     1   0.10190 328360.320000
    420    421     1   0.09730 310787.520000
    425    426     1   0.09730 310787.520000
    429    430     1   0.10129 337397.760000
    431    432     1   0.10969 276646.080000
    431    434     1   0.10969 276646.080000
    433    435     1   0.10969 276646.080000
    433    436     1   0.10969 276646.080000
    437    502     1   0.10304 312293.760000
    438    447     1   0.10969 276646.080000
    438    448     1   0.10969 276646.080000
    439    440     1   0.10969 276646.080000
    439    442     1   0.10969 276646.080000
    441    443     1   0.10969 276646.080000
    441    444     1   0.10969 276646.080000
    449    450     1   0.10969 276646.080000
    449    451     1   0.10969 276646.080000
    454    456     1   0.10969 276646.080000
    455    474     1   0.10969 276646.080000
    457    461     1   0.10969 276646.080000
    458    460     1   0.10969 276646.080000
    459    462     1   0.10961 277566.560000
    463    473     1   0.09730 310787.520000
    464    466     1   0.09730 310787.520000
    465    468     1   0.10969 276646.080000
    465    469     1   0.10969 276646.080000
    467    477     1   0.10190 328360.320000
    470    471     1   0.09730 310787.520000
    475    476     1   0.09730 310787.520000
    478    480     1   0.10969 276646.080000
    479    498     1   0.10969 276646.080000
    481    485     1   0.10969 276646.080000
    482    484     1   0.10969 276646.080000
    483    486     1   0.10961 277566.560000
    487    497     1   0.09730 310787.520000
    488    490     1   0.09730 310787.520000
    489    492     1   0.10969 276646.080000
    489    493     1   0.10969 276646.080000
    491    501     1   0.10190 328360.320000
    494    495     1   0.09730 310787.520000
    499    500     1   0.09730 310787.520000
    503    504     1   0.10129 337397.760000
    505    506     1   0.10969 276646.080000
    505    508     1   0.10969 276646.080000
    507    509     1   0.10969 276646.080000
    507    510     1   0.10969 276646.080000
    511    576     1   0.10304 312293.760000
    512    521     1   0.10969 276646.080000
    512    522     1   0.10969 276646.080000
    513    514     1   0.10969 276646.080000
    513    516     1   0.10969 276646.080000
    515    517     1   0.10969 276646.080000
    515    518     1   0.10969 276646.080000
    523    524     1   0.10969 276646.080000
    523    525     1   0.10969 276646.080000
    528    530     1   0.10969 276646.080000
    529    548     1   0.10969 276646.080000
    531    535     1   0.10969 276646.080000
    532    534     1   0.10969 276646.080000
    533    536     1   0.10961 277566.560000
    537    547     1   0.09730 310787.520000
    538    540     1   0.09730 310787.520000
    539    542     1   0.10969 276646.080000
    539    543     1   0.10969 276646.080000
    541    551     1   0.10190 328360.320000
    544    545     1   0.09730 310787.520000
    549    550     1   0.09730 310787.520000
    552    554     1   0.10969 276646.080000
    553    572     1   0.10969 276646.080000
    555    559     1   0.10969 276646.080000
    556    558     1   0.10969 276646.080000
    557    560     1   0.10961 277566.560000
    561    571     1   0.09730 310787.520000
    562    564     1   0.09730 310787.520000
    563    566     1   0.10969 276646.080000
    563    567     1   0.10969 276646.080000
    565    575     1   0.10190 328360.320000
    568    569     1   0.09730 310787.520000
    573    574     1   0.09730 310787.520000
    577    578     1   0.10129 337397.760000
    579    580     1   0.10969 276646.080000
    579    582     1   0.10969 276646.080000
    581    583     1   0.10969 276646.080000
    581    584     1   0.10969 276646.080000
    585    650     1   0.10304 312293.760000
    586    595     1   0.10969 276646.080000
    586    596     1   0.10969 276646.080000
    587    588     1   0.10969 276646.080000
    587    590     1   0.10969 276646.080000
    589    591     1   0.10969 276646.080000
    589    592     1   0.10969 276646.080000
    597    598     1   0.10969 276646.080000
    597    599     1   0.10969 276646.080000
    602    604     1   0.10969 276646.080000
    603    622     1   0.10969 276646.080000
    605    609     1   0.10969 276646.080000
    606    608     1   0.10969 276646.080000
    607    610     1   0.10961 277566.560000
    611    621     1   0.09730 310787.520000
    612    614     1   0.09730 310787.520000
    613    616     1   0.10969 276646.080000
    613    617     1   0.10969 276646.080000
    615    625     1   0.10190 328360.320000
    618    619     1   0.09730 310787.520000
    623    624     1   0.09730 310787.520000
    626    628     1   0.10969 276646.080000
    627    646     1   0.10969 276646.080000
    629    633     1   0.10969 276646.080000
    630    632     1   0.10969 276646.080000
    631    634     1   0.10961 277566.560000
    635    645     1   0.09730 310787.520000
    636    638     1   0.09730 310787.520000
    637    640     1   0.10969 276646.080000
    637    641     1   0.10969 276646.080000
    639    649     1   0.10190 328360.320000
    642    643     1   0.09730 310787.520000
    647    648     1   0.09730 310787.520000
    651    652     1   0.10129 337397.760000
    653    654     1   0.10969 276646.080000
    653    656     1   0.10969 276646.080000
    655    657     1   0.10969 276646.080000
    655    658     1   0.10969 276646.080000
    659    724     1   0.10304 312293.760000
    660    669     1   0.10969 276646.080000
    660    670     1   0.10969 276646.080000
    661    662     1   0.10969 276646.080000
    661    664     1   0.10969 276646.080000
    663    665     1   0.10969 276646.080000
    663    666     1   0.10969 276646.080000
    671    672     1   0.10969 276646.080000
    671    673     1   0.10969 276646.080000
    676    678     1   0.10969 276646.080000
    677    696     1   0.10969 276646.080000
    679    683     1   0.10969 276646.080000
    680    682     1   0.10969 276646.080000
    681    684     1   0.10961 277566.560000
    685    695     1   0.09730 310787.520000
    686    688     1   0.09730 310787.520000
    687    690     1   0.10969 276646.080000
    687    691     1   0.10969 276646.080000
    689    699     1   0.10190 328360.320000
    692    693     1   0.09730 310787.520000
    697    698     1   0.09730 310787.520000
    700    702     1   0.10969 276646.080000
    701    720     1   0.10969 276646.080000
    703    707     1   0.10969 276646.080000
    704    706     1   0.10969 276646.080000
    705    708     1   0.10961 277566.560000
    709    719     1   0.09730 310787.520000
    710    712     1   0.09730 310787.520000
    711    714     1   0.10969 276646.080000
    711    715     1   0.10969 276646.080000
    713    723     1   0.10190 328360.320000
    716    717     1   0.09730 310787.520000
    721    722     1   0.09730 310787.520000
    725    726     1   0.10129 337397.760000
    727    728     1   0.10969 276646.080000
    727    730     1   0.10969 276646.080000
    729    731     1   0.10969 276646.080000
    729    732     1   0.10969 276646.080000
    733    798     1   0.10304 312293.760000
    734    743     1   0.10969 276646.080000
    734    744     1   0.10969 276646.080000
    735    736     1   0.10969 276646.080000
    735    738     1   0.10969 276646.080000
    737    739     1   0.10969 276646.080000
    737    740     1   0.10969 276646.080000
    745    746     1   0.10969 276646.080000
    745    747     1   0.10969 276646.080000
    750    752     1   0.10969 276646.080000
    751    770     1   0.10969 276646.080000
    753    757     1   0.10969 276646.080000
    754    756     1   0.10969 276646.080000
    755    758     1   0.10961 277566.560000
    759    769     1   0.09730 310787.520000
    760    762     1   0.09730 310787.520000
    761    764     1   0.10969 276646.080000
    761    765     1   0.10969 276646.080000
    763    773     1   0.10190 328360.320000
    766    767     1   0.09730 310787.520000
    771    772     1   0.09730 310787.520000
    774    776     1   0.10969 276646.080000
    775    794     1   0.10969 276646.080000
    777    781     1   0.10969 276646.080000
    778    780     1   0.10969 276646.080000
    779    782     1   0.10961 277566.560000
    783    793     1   0.09730 310787.520000
    784    786     1   0.09730 310787.520000
    785    788     1   0.10969 276646.080000
    785    789     1   0.10969 276646.080000
    787    797     1   0.10190 328360.320000
    790    791     1   0.09730 310787.520000
    795    796     1   0.09730 310787.520000
    799    800     1   0.10129 337397.760000
    801    802     1   0.10969 276646.080000
    801    804     1   0.10969 276646.080000
    803    805     1   0.10969 276646.080000
    803    806     1   0.10969 276646.080000
    807    872     1   0.10304 312293.760000
    808    817     1   0.10969 276646.080000
    808    818     1   0.10969 276646.080000
    809    810     1   0.10969 276646.080000
    809    812     1   0.10969 276646.080000
    811    813     1   0.10969 276646.080000
    811    814     1   0.10969 276646.080000
    819    820     1   0.10969 276646.080000
    819    821     1   0.10969 276646.080000
    824    826     1   0.10969 276646.080000
    825    844     1   0.10969 276646.080000
    827    831     1   0.10969 276646.080000
    828    830     1   0.10969 276646.080000
    829    832     1   0.10961 277566.560000
    833    843     1   0.09730 310787.520000
    834    836     1   0.09730 310787.520000
    835    838     1   0.10969 276646.080000
    835    839     1   0.10969 276646.080000
    837    847     1   0.10190 328360.320000
    840    841     1   0.09730 310787.520000
    845    846     1   0.09730 310787.520000
    848    850     1   0.10969 276646.080000
    849    868     1   0.10969 276646.080000
    851    855     1   0.10969 276646.080000
    852    854     1   0.10969 276646.080000
    853    856     1   0.10961 277566.560000
    857    867     1   0.09730 310787.520000
    858    860     1   0.09730 310787.520000
    859    862     1   0.10969 276646.080000
    859    863     1   0.10969 276646.080000
    861    871     1   0.10190 328360.320000
    864    865     1   0.09730 310787.520000
    869    870     1   0.09730 310787.520000
    873    874     1   0.10129 337397.760000
    875    876     1   0.10969 276646.080000
    875    878     1   0.10969 276646.080000
    877    879     1   0.10969 276646.080000
    877    880     1   0.10969 276646.080000
    881    946     1   0.10304 312293.760000
    882    891     1   0.10969 276646.080000
    882    892     1   0.10969 276646.080000
    883    884     1   0.10969 276646.080000
    883    886     1   0.10969 276646.080000
    885    887     1   0.10969 276646.080000
    885    888     1   0.10969 276646.080000
    893    894     1   0.10969 276646.080000
    893    895     1   0.10969 276646.080000
    898    900     1   0.10969 276646.080000
    899    918     1   0.10969 276646.080000
    901    905     1   0.10969 276646.080000
    902    904     1   0.10969 276646.080000
    903    906     1   0.10961 277566.560000
    907    917     1   0.09730 310787.520000
    908    910     1   0.09730 310787.520000
    909    912     1   0.10969 276646.080000
    909    913     1   0.10969 276646.080000
    911    921     1   0.10190 328360.320000
    914    915     1   0.09730 310787.520000
    919    920     1   0.09730 310787.520000
    922    924     1   0.10969 276646.080000
    923    942     1   0.10969 276646.080000
    925    929     1   0.10969 276646.080000
    926    928     1   0.10969 276646.080000
    927    930     1   0.10961 277566.560000
    931    941     1   0.09730 310787.520000
    932    934     1   0.09730 310787.520000
    933    936     1   0.10969 276646.080000
    933    937     1   0.10969 276646.080000
    935    945     1   0.10190 328360.320000
    938    939     1   0.09730 310787.520000
    943    944     1   0.09730 310787.520000
    947    948     1   0.10129 337397.760000
    949    950     1   0.10969 276646.080000
    949    952     1   0.10969 276646.080000
    951    953     1   0.10969 276646.080000
    951    954     1   0.10969 276646.080000
    955   1020     1   0.10304 312293.760000
    956    965     1   0.10969 276646.080000
    956    966     1   0.10969 276646.080000
    957    958     1   0.10969 276646.080000
    957    960     1   0.10969 276646.080000
    959    961     1   0.10969 276646.080000
    959    962     1   0.10969 276646.080000
    967    968     1   0.10969 276646.080000
    967    969     1   0.10969 276646.080000
    972    974     1   0.10969 276646.080000
    973    992     1   0.10969 276646.080000
    975    979     1   0.10969 276646.080000
    976    978     1   0.10969 276646.080000
    977    980     1   0.10961 277566.560000
    981    991     1   0.09730 310787.520000
    982    984     1   0.09730 310787.520000
    983    986     1   0.10969 276646.080000
    983    987     1   0.10969 276646.080000
    985    995     1   0.10190 328360.320000
    988    989     1   0.09730 310787.520000
    993    994     1   0.09730 310787.520000
    996    998     1   0.10969 276646.080000
    997   1016     1   0.10969 276646.080000
    999   1003     1   0.10969 276646.080000
   1000   1002     1   0.10969 276646.080000
   1001   1004     1   0.10961 277566.560000
   1005   1015     1   0.09730 310787.520000
   1006   1008     1   0.09730 310787.520000
   1007   1010     1   0.10969 276646.080000
   1007   1011     1   0.10969 276646.080000
   1009   1019     1   0.10190 328360.320000
   1012   1013     1   0.09730 310787.520000
   1017   1018     1   0.09730 310787.520000
   1021   1022     1   0.10129 337397.760000
   1023   1024     1   0.10969 276646.080000
   1023   1026     1   0.10969 276646.080000
   1025   1027     1   0.10969 276646.080000
   1025   1028     1   0.10969 276646.080000
   1029   1094     1   0.10304 312293.760000
   1030   1039     1   0.10969 276646.080000
   1030   1040     1   0.10969 276646.080000
   1031   1032     1   0.10969 276646.080000
   1031   1034     1   0.10969 276646.080000
   1033   1035     1   0.10969 276646.080000
   1033   1036     1   0.10969 276646.080000
   1041   1042     1   0.10969 276646.080000
   1041   1043     1   0.10969 276646.080000
   1046   1048     1   0.10969 276646.080000
   1047   1066     1   0.10969 276646.080000
   1049   1053     1   0.10969 276646.080000
   1050   1052     1   0.10969 276646.080000
   1051   1054     1   0.10961 277566.560000
   1055   1065     1   0.09730 310787.520000
   1056   1058     1   0.09730 310787.520000
   1057   1060     1   0.10969 276646.080000
   1057   1061     1   0.10969 276646.080000
   1059   1069     1   0.10190 328360.320000
   1062   1063     1   0.09730 310787.520000
   1067   1068     1   0.09730 310787.520000
   1070   1072     1   0.10969 276646.080000
   1071   1090     1   0.10969 276646.080000
   1073   1077     1   0.10969 276646.080000
   1074   1076     1   0.10969 276646.080000
   1075   1078     1   0.10961 277566.560000
   1079   1089     1   0.09730 310787.520000
   1080   1082     1   0.09730 310787.520000
   1081   1084     1   0.10969 276646.080000
   1081   1085     1   0.10969 276646.080000
   1083   1093     1   0.10190 328360.320000
   1086   1087     1   0.09730 310787.520000
   1091   1092     1   0.09730 310787.520000
   1095   1096     1   0.10129 337397.760000
   1097   1098     1   0.10969 276646.080000
   1097   1100     1   0.10969 276646.080000
   1099   1101     1   0.10969 276646.080000
   1099   1102     1   0.10969 276646.080000
   1103   1168     1   0.10304 312293.760000
   1104   1113     1   0.10969 276646.080000
   1104   1114     1   0.10969 276646.080000
   1105   1106     1   0.10969 276646.080000
   1105   1108     1   0.10969 276646.080000
   1107   1109     1   0.10969 276646.080000
   1107   1110     1   0.10969 276646.080000
   1115   1116     1   0.10969 276646.080000
   1115   1117     1   0.10969 276646.080000
   1120   1122     1   0.10969 276646.080000
   1121   1140     1   0.10969 276646.080000
   1123   1127     1   0.10969 276646.080000
   1124   1126     1   0.10969 276646.080000
   1125   1128     1   0.10961 277566.560000
   1129   1139     1   0.09730 310787.520000
   1130   1132     1   0.09730 310787.520000
   1131   1134     1   0.10969 276646.080000
   1131   1135     1   0.10969 276646.080000
   1133   1143     1   0.10190 328360.320000
   1136   1137     1   0.09730 310787.520000
   1141   1142     1   0.09730 310787.520000
   1144   1146     1   0.10969 276646.080000
   1145   1164     1   0.10969 276646.080000
   1147   1151     1   0.10969 276646.080000
   1148   1150     1   0.10969 276646.080000
   1149   1152     1   0.10961 277566.560000
   1153   1163     1   0.09730 310787.520000
   1154   1156     1   0.09730 310787.520000
   1155   1158     1   0.10969 276646.080000
   1155   1159     1   0.10969 276646.080000
   1157   1167     1   0.10190 328360.320000
   1160   1161     1   0.09730 310787.520000
   1165   1166     1   0.09730 310787.520000
   1169   1170     1   0.10129 337397.760000
   1171   1172     1   0.10969 276646.080000
   1171   1174     1   0.10969 276646.080000
   1173   1175     1   0.10969 276646.080000
   1173   1176     1   0.10969 276646.080000
   1177   1242     1   0.10304 312293.760000
   1178   1187     1   0.10969 276646.080000
   1178   1188     1   0.10969 276646.080000
   1179   1180     1   0.10969 276646.080000
   1179   1182     1   0.10969 276646.080000
   1181   1183     1   0.10969 276646.080000
   1181   1184     1   0.10969 276646.080000
   1189   1190     1   0.10969 276646.080000
   1189   1191     1   0.10969 276646.080000
   1194   1196     1   0.10969 276646.080000
   1195   1214     1   0.10969 276646.080000
   1197   1201     1   0.10969 276646.080000
   1198   1200     1   0.10969 276646.080000
   1199   1202     1   0.10961 277566.560000
   1203   1213     1   0.09730 310787.520000
   1204   1206     1   0.09730 310787.520000
   1205   1208     1   0.10969 276646.080000
   1205   1209     1   0.10969 276646.080000
   1207   1217     1   0.10190 328360.320000
   1210   1211     1   0.09730 310787.520000
   1215   1216     1   0.09730 310787.520000
   1218   1220     1   0.10969 276646.080000
   1219   1238     1   0.10969 276646.080000
   1221   1225     1   0.10969 276646.080000
   1222   1224     1   0.10969 276646.080000
   1223   1226     1   0.10961 277566.560000
   1227   1237     1   0.09730 310787.520000
   1228   1230     1   0.09730 310787.520000
   1229   1232     1   0.10969 276646.080000
   1229   1233     1   0.10969 276646.080000
   1231   1241     1   0.10190 328360.320000
   1234   1235     1   0.09730 310787.520000
   1239   1240     1   0.09730 310787.520000
   1243   1244     1   0.10129 337397.760000
   1245   1246     1   0.10969 276646.080000
   1245   1248     1   0.10969 276646.080000
   1247   1249     1   0.10969 276646.080000
   1247   1250     1   0.10969 276646.080000
   1251   1316     1   0.10304 312293.760000
   1252   1261     1   0.10969 276646.080000
   1252   1262     1   0.10969 276646.080000
   1253   1254     1   0.10969 276646.080000
   1253   1256     1   0.10969 276646.080000
   1255   1257     1   0.10969 276646.080000
   1255   1258     1   0.10969 276646.080000
   1263   1264     1   0.10969 276646.080000
   1263   1265     1   0.10969 276646.080000
   1268   1270     1   0.10969 276646.080000
   1269   1288     1   0.10969 276646.080000
   1271   1275     1   0.10969 276646.080000
   1272   1274     1   0.10969 276646.080000
   1273   1276     1   0.10961 277566.560000
   1277   1287     1   0.09730 310787.520000
   1278   1280     1   0.09730 310787.520000
   1279   1282     1   0.10969 276646.080000
   1279   1283     1   0.10969 276646.080000
   1281   1291     1   0.10190 328360.320000
   1284   1285     1   0.09730 310787.520000
   1289   1290     1   0.09730 310787.520000
   1292   1294     1   0.10969 276646.080000
   1293   1312     1   0.10969 276646.080000
   1295   1299     1   0.10969 276646.080000
   1296   1298     1   0.10969 276646.080000
   1297   1300     1   0.10961 277566.560000
   1301   1311     1   0.09730 310787.520000
   1302   1304     1   0.09730 310787.520000
   1303   1306     1   0.10969 276646.080000
   1303   1307     1   0.10969 276646.080000
   1305   1315     1   0.10190 328360.320000
   1308   1309     1   0.09730 310787.520000
   1313   1314     1   0.09730 310787.520000
   1317   1318     1   0.10129 337397.760000
   1319   1320     1   0.10969 276646.080000
   1319   1322     1   0.10969 276646.080000
   1321   1323     1   0.10969 276646.080000
   1321   1324     1   0.10969 276646.080000
   1325   1390     1   0.10304 312293.760000
   1326   1335     1   0.10969 276646.080000
   1326   1336     1   0.10969 276646.080000
   1327   1328     1   0.10969 276646.080000
   1327   1330     1   0.10969 276646.080000
   1329   1331     1   0.10969 276646.080000
   1329   1332     1   0.10969 276646.080000
   1337   1338     1   0.10969 276646.080000
   1337   1339     1   0.10969 276646.080000
   1342   1344     1   0.10969 276646.080000
   1343   1362     1   0.10969 276646.080000
   1345   1349     1   0.10969 276646.080000
   1346   1348     1   0.10969 276646.080000
   1347   1350     1   0.10961 277566.560000
   1351   1361     1   0.09730 310787.520000
   1352   1354     1   0.09730 310787.520000
   1353   1356     1   0.10969 276646.080000
   1353   1357     1   0.10969 276646.080000
   1355   1365     1   0.10190 328360.320000
   1358   1359     1   0.09730 310787.520000
   1363   1364     1   0.09730 310787.520000
   1366   1368     1   0.10969 276646.080000
   1367   1386     1   0.10969 276646.080000
   1369   1373     1   0.10969 276646.080000
   1370   1372     1   0.10969 276646.080000
   1371   1374     1   0.10961 277566.560000
   1375   1385     1   0.09730 310787.520000
   1376   1378     1   0.09730 310787.520000
   1377   1380     1   0.10969 276646.080000
   1377   1381     1   0.10969 276646.080000
   1379   1389     1   0.10190 328360.320000
   1382   1383     1   0.09730 310787.520000
   1387   1388     1   0.09730 310787.520000
   1391   1392     1   0.10129 337397.760000
   1393   1394     1   0.10969 276646.080000
   1393   1396     1   0.10969 276646.080000
   1395   1397     1   0.10969 276646.080000
   1395   1398     1   0.10969 276646.080000
   1399   1464     1   0.10304 312293.760000
   1400   1409     1   0.10969 276646.080000
   1400   1410     1   0.10969 276646.080000
   1401   1402     1   0.10969 276646.080000
   1401   1404     1   0.10969 276646.080000
   1403   1405     1   0.10969 276646.080000
   1403   1406     1   0.10969 276646.080000
   1411   1412     1   0.10969 276646.080000
   1411   1413     1   0.10969 276646.080000
   1416   1418     1   0.10969 276646.080000
   1417   1436     1   0.10969 276646.080000
   1419   1423     1   0.10969 276646.080000
   1420   1422     1   0.10969 276646.080000
   1421   1424     1   0.10961 277566.560000
   1425   1435     1   0.09730 310787.520000
   1426   1428     1   0.09730 310787.520000
   1427   1430     1   0.10969 276646.080000
   1427   1431     1   0.10969 276646.080000
   1429   1439     1   0.10190 328360.320000
   1432   1433     1   0.09730 310787.520000
   1437   1438     1   0.09730 310787.520000
   1440   1442     1   0.10969 276646.080000
   1441   1460     1   0.10969 276646.080000
   1443   1447     1   0.10969 276646.080000
   1444   1446     1   0.10969 276646.080000
   1445   1448     1   0.10961 277566.560000
   1449   1459     1   0.09730 310787.520000
   1450   1452     1   0.09730 310787.520000
   1451   1454     1   0.10969 276646.080000
   1451   1455     1   0.10969 276646.080000
   1453   1463     1   0.10190 328360.320000
   1456   1457     1   0.09730 310787.520000
   1461   1462     1   0.09730 310787.520000
   1465   1466     1   0.10129 337397.760000
   1467   1468     1   0.10969 276646.080000
   1467   1470     1   0.10969 276646.080000
   1469   1471     1   0.10969 276646.080000
   1469   1472     1   0.10969 276646.080000
   1473   1538     1   0.10304 312293.760000
   1474   1483     1   0.10969 276646.080000
   1474   1484     1   0.10969 276646.080000
   1475   1476     1   0.10969 276646.080000
   1475   1478     1   0.10969 276646.080000
   1477   1479     1   0.10969 276646.080000
   1477   1480     1   0.10969 276646.080000
   1485   1486     1   0.10969 276646.080000
   1485   1487     1   0.10969 276646.080000
   1490   1492     1   0.10969 276646.080000
   1491   1510     1   0.10969 276646.080000
   1493   1497     1   0.10969 276646.080000
   1494   1496     1   0.10969 276646.080000
   1495   1498     1   0.10961 277566.560000
   1499   1509     1   0.09730 310787.520000
   1500   1502     1   0.09730 310787.520000
   1501   1504     1   0.10969 276646.080000
   1501   1505     1   0.10969 276646.080000
   1503   1513     1   0.10190 328360.320000
   1506   1507     1   0.09730 310787.520000
   1511   1512     1   0.09730 310787.520000
   1514   1516     1   0.10969 276646.080000
   1515   1534     1   0.10969 276646.080000
   1517   1521     1   0.10969 276646.080000
   1518   1520     1   0.10969 276646.080000
   1519   1522     1   0.10961 277566.560000
   1523   1533     1   0.09730 310787.520000
   1524   1526     1   0.09730 310787.520000
   1525   1528     1   0.10969 276646.080000
   1525   1529     1   0.10969 276646.080000
   1527   1537     1   0.10190 328360.320000
   1530   1531     1   0.09730 310787.520000
   1535   1536     1   0.09730 310787.520000

[ pairs ]
;    ai     aj funct         c0         c1         c2         c3
      1      4     1
      1     14     1
      1     16     1
      2     13     1
      2     15     1
      2      5     1
      2      6     1
      7      3     1
      8      3     1
      3     11     1
      3      9     1
      4     12     1
      4     10     1
      5      9     1
      5     17     1
      5     78     1
      6     11     1
      6     18     1
      6     52     1
      7     15     1
      7     20     1
      7    104     1
      8     13     1
      8     19     1
      8    130     1
      9     51     1
     10     50     1
     11     77     1
     12     76     1
     13    103     1
     14    102     1
     15    129     1
     16    128     1
     17     77     1
     18     51     1
     19    129     1
     20    103     1
     43     47     1
     43     49     1
     43     52     1
     44     48     1
     44     51     1
     44     53     1
     44    156     1
     45     46     1
     45     51     1
     45     54     1
     45    182     1
     46     50     1
     46    155     1
     47    154     1
     48     50     1
     48    181     1
     49    180     1
     53    155     1
     54    181     1
     69     73     1
     69     75     1
     69     78     1
     70     74     1
     70     77     1
     70     79     1
     70    208     1
     71     72     1
     71     77     1
     71     80     1
     71    234     1
     72     76     1
     72    207     1
     73    206     1
     74     76     1
     74    233     1
     75    232     1
     79    207     1
     80    233     1
     95     99     1
     95    101     1
     95    104     1
     96    100     1
     96    103     1
     96    105     1
     96    260     1
     97     98     1
     97    103     1
     97    106     1
     97    286     1
     98    102     1
     98    259     1
     99    258     1
    100    102     1
    100    285     1
    101    284     1
    105    259     1
    106    285     1
    121    125     1
    121    127     1
    121    130     1
    122    126     1
    122    129     1
    122    131     1
    122    312     1
    123    124     1
    123    129     1
    123    132     1
    123    338     1
    124    128     1
    124    311     1
    125    310     1
    126    128     1
    126    337     1
    127    336     1
    131    311     1
    132    337     1
    147    151     1
    147    153     1
    147    156     1
    148    152     1
    148    155     1
    148    355     1
    148    157     1
    149    150     1
    149    155     1
    149    158     1
    149    429     1
    150    154     1
    150    357     1
    151    359     1
    152    154     1
    152    431     1
    153    433     1
    157    357     1
    158    431     1
    173    177     1
    173    179     1
    173    182     1
    174    178     1
    174    181     1
    174    503     1
    174    183     1
    175    176     1
    175    181     1
    175    184     1
    175    577     1
    176    180     1
    176    505     1
    177    507     1
    178    180     1
    178    579     1
    179    581     1
    183    505     1
    184    579     1
    199    203     1
    199    205     1
    199    208     1
    200    204     1
    200    207     1
    200    651     1
    200    209     1
    201    202     1
    201    207     1
    201    210     1
    201    725     1
    202    206     1
    202    653     1
    203    655     1
    204    206     1
    204    727     1
    205    729     1
    209    653     1
    210    727     1
    225    229     1
    225    231     1
    225    234     1
    226    230     1
    226    233     1
    226    799     1
    226    235     1
    227    228     1
    227    233     1
    227    236     1
    227    873     1
    228    232     1
    228    801     1
    229    803     1
    230    232     1
    230    875     1
    231    877     1
    235    801     1
    236    875     1
    251    255     1
    251    257     1
    251    260     1
    252    256     1
    252    259     1
    252    947     1
    252    261     1
    253    254     1
    253    259     1
    253    262     1
    253   1021     1
    254    258     1
    254    949     1
    255    951     1
    256    258     1
    256   1023     1
    257   1025     1
    261    949     1
    262   1023     1
    277    281     1
    277    283     1
    277    286     1
    278    282     1
    278    285     1
    278   1095     1
    278    287     1
    279    280     1
    279    285     1
    279    288     1
    279   1169     1
    280    284     1
    280   1097     1
    281   1099     1
    282    284     1
    282   1171     1
    283   1173     1
    287   1097     1
    288   1171     1
    303    307     1
    303    309     1
    303    312     1
    304    308     1
    304    311     1
    304   1243     1
    304    313     1
    305    306     1
    305    311     1
    305    314     1
    305   1317     1
    306    310     1
    306   1245     1
    307   1247     1
    308    310     1
    308   1319     1
    309   1321     1
    313   1245     1
    314   1319     1
    329    333     1
    329    335     1
    329    338     1
    330    334     1
    330    337     1
    330   1391     1
    330    339     1
    331    332     1
    331    337     1
    331   1465     1
    331    340     1
    332    336     1
    332   1393     1
    333   1395     1
    334    336     1
    334   1467     1
    335   1469     1
    339   1393     1
    340   1467     1
    355    363     1
    357    364     1
    357    365     1
    359    375     1
    359    367     1
    363    378     1
    363    371     1
    364    367     1
    364    379     1
    364    427     1
    365    375     1
    365    372     1
    365    403     1
    367    384     1
    371    383     1
    371    385     1
    372    384     1
    375    408     1
    378    407     1
    378    409     1
    379    408     1
    380    384     1
    380    390     1
    380    389     1
    381    396     1
    381    385     1
    381    403     1
    383    391     1
    383    398     1
    383    389     1
    384    401     1
    385    390     1
    385    391     1
    389    403     1
    390    401     1
    390    403     1
    391    401     1
    396    398     1
    398    401     1
    398    403     1
    404    408     1
    404    414     1
    404    413     1
    405    420     1
    405    409     1
    405    427     1
    407    415     1
    407    422     1
    407    413     1
    408    425     1
    409    414     1
    409    415     1
    413    427     1
    414    425     1
    414    427     1
    415    425     1
    420    422     1
    422    425     1
    422    427     1
    429    437     1
    431    438     1
    431    439     1
    433    449     1
    433    441     1
    437    452     1
    437    445     1
    438    453     1
    438    501     1
    438    441     1
    439    446     1
    439    477     1
    439    449     1
    441    458     1
    445    459     1
    445    457     1
    446    458     1
    449    482     1
    452    483     1
    452    481     1
    453    482     1
    454    458     1
    454    464     1
    454    463     1
    455    459     1
    455    477     1
    455    470     1
    457    463     1
    457    472     1
    457    465     1
    458    475     1
    459    465     1
    459    464     1
    463    477     1
    464    477     1
    464    475     1
    465    475     1
    470    472     1
    472    477     1
    472    475     1
    478    482     1
    478    488     1
    478    487     1
    479    483     1
    479    501     1
    479    494     1
    481    487     1
    481    496     1
    481    489     1
    482    499     1
    483    489     1
    483    488     1
    487    501     1
    488    501     1
    488    499     1
    489    499     1
    494    496     1
    496    501     1
    496    499     1
    503    511     1
    505    512     1
    505    513     1
    507    523     1
    507    515     1
    511    526     1
    511    519     1
    512    515     1
    512    527     1
    512    575     1
    513    523     1
    513    520     1
    513    551     1
    515    532     1
    519    531     1
    519    533     1
    520    532     1
    523    556     1
    526    555     1
    526    557     1
    527    556     1
    528    532     1
    528    538     1
    528    537     1
    529    544     1
    529    533     1
    529    551     1
    531    539     1
    531    546     1
    531    537     1
    532    549     1
    533    538     1
    533    539     1
    537    551     1
    538    549     1
    538    551     1
    539    549     1
    544    546     1
    546    549     1
    546    551     1
    552    556     1
    552    562     1
    552    561     1
    553    568     1
    553    557     1
    553    575     1
    555    563     1
    555    570     1
    555    561     1
    556    573     1
    557    562     1
    557    563     1
    561    575     1
    562    573     1
    562    575     1
    563    573     1
    568    570     1
    570    573     1
    570    575     1
    577    585     1
    579    586     1
    579    587     1
    581    597     1
    581    589     1
    585    600     1
    585    593     1
    586    601     1
    586    649     1
    586    589     1
    587    594     1
    587    625     1
    587    597     1
    589    606     1
    593    607     1
    593    605     1
    594    606     1
    597    630     1
    600    631     1
    600    629     1
    601    630     1
    602    606     1
    602    612     1
    602    611     1
    603    607     1
    603    625     1
    603    618     1
    605    611     1
    605    620     1
    605    613     1
    606    623     1
    607    613     1
    607    612     1
    611    625     1
    612    625     1
    612    623     1
    613    623     1
    618    620     1
    620    625     1
    620    623     1
    626    630     1
    626    636     1
    626    635     1
    627    631     1
    627    649     1
    627    642     1
    629    635     1
    629    644     1
    629    637     1
    630    647     1
    631    637     1
    631    636     1
    635    649     1
    636    649     1
    636    647     1
    637    647     1
    642    644     1
    644    649     1
    644    647     1
    651    659     1
    653    660     1
    653    661     1
    655    671     1
    655    663     1
    659    674     1
    659    667     1
    660    663     1
    660    675     1
    660    723     1
    661    671     1
    661    668     1
    661    699     1
    663    680     1
    667    679     1
    667    681     1
    668    680     1
    671    704     1
    674    703     1
    674    705     1
    675    704     1
    676    680     1
    676    686     1
    676    685     1
    677    692     1
    677    681     1
    677    699     1
    679    687     1
    679    694     1
    679    685     1
    680    697     1
    681    686     1
    681    687     1
    685    699     1
    686    697     1
    686    699     1
    687    697     1
    692    694     1
    694    697     1
    694    699     1
    700    704     1
    700    710     1
    700    709     1
    701    716     1
    701    705     1
    701    723     1
    703    711     1
    703    718     1
    703    709     1
    704    721     1
    705    710     1
    705    711     1
    709    723     1
    710    721     1
    710    723     1
    711    721     1
    716    718     1
    718    721     1
    718    723     1
    725    733     1
    727    734     1
    727    735     1
    729    745     1
    729    737     1
    733    748     1
    733    741     1
    734    749     1
    734    797     1
    734    737     1
    735    742     1
    735    773     1
    735    745     1
    737    754     1
    741    755     1
    741    753     1
    742    754     1
    745    778     1
    748    779     1
    748    777     1
    749    778     1
    750    754     1
    750    760     1
    750    759     1
    751    755     1
    751    773     1
    751    766     1
    753    759     1
    753    768     1
    753    761     1
    754    771     1
    755    761     1
    755    760     1
    759    773     1
    760    773     1
    760    771     1
    761    771     1
    766    768     1
    768    773     1
    768    771     1
    774    778     1
    774    784     1
    774    783     1
    775    779     1
    775    797     1
    775    790     1
    777    783     1
    777    792     1
    777    785     1
    778    795     1
    779    785     1
    779    784     1
    783    797     1
    784    797     1
    784    795     1
    785    795     1
    790    792     1
    792    797     1
    792    795     1
    799    807     1
    801    808     1
    801    809     1
    803    819     1
    803    811     1
    807    822     1
    807    815     1
    808    811     1
    808    823     1
    808    871     1
    809    819     1
    809    816     1
    809    847     1
    811    828     1
    815    827     1
    815    829     1
    816    828     1
    819    852     1
    822    851     1
    822    853     1
    823    852     1
    824    828     1
    824    834     1
    824    833     1
    825    840     1
    825    829     1
    825    847     1
    827    835     1
    827    842     1
    827    833     1
    828    845     1
    829    834     1
    829    835     1
    833    847     1
    834    845     1
    834    847     1
    835    845     1
    840    842     1
    842    845     1
    842    847     1
    848    852     1
    848    858     1
    848    857     1
    849    864     1
    849    853     1
    849    871     1
    851    859     1
    851    866     1
    851    857     1
    852    869     1
    853    858     1
    853    859     1
    857    871     1
    858    869     1
    858    871     1
    859    869     1
    864    866     1
    866    869     1
    866    871     1
    873    881     1
    875    882     1
    875    883     1
    877    893     1
    877    885     1
    881    896     1
    881    889     1
    882    897     1
    882    945     1
    882    885     1
    883    890     1
    883    921     1
    883    893     1
    885    902     1
    889    903     1
    889    901     1
    890    902     1
    893    926     1
    896    927     1
    896    925     1
    897    926     1
    898    902     1
    898    908     1
    898    907     1
    899    903     1
    899    921     1
    899    914     1
    901    907     1
    901    916     1
    901    909     1
    902    919     1
    903    909     1
    903    908     1
    907    921     1
    908    921     1
    908    919     1
    909    919     1
    914    916     1
    916    921     1
    916    919     1
    922    926     1
    922    932     1
    922    931     1
    923    927     1
    923    945     1
    923    938     1
    925    931     1
    925    940     1
    925    933     1
    926    943     1
    927    933     1
    927    932     1
    931    945     1
    932    945     1
    932    943     1
    933    943     1
    938    940     1
    940    945     1
    940    943     1
    947    955     1
    949    956     1
    949    957     1
    951    967     1
    951    959     1
    955    970     1
    955    963     1
    956    959     1
    956    971     1
    956   1019     1
    957    967     1
    957    964     1
    957    995     1
    959    976     1
    963    975     1
    963    977     1
    964    976     1
    967   1000     1
    970    999     1
    970   1001     1
    971   1000     1
    972    976     1
    972    982     1
    972    981     1
    973    988     1
    973    977     1
    973    995     1
    975    983     1
    975    990     1
    975    981     1
    976    993     1
    977    982     1
    977    983     1
    981    995     1
    982    993     1
    982    995     1
    983    993     1
    988    990     1
    990    993     1
    990    995     1
    996   1000     1
    996   1006     1
    996   1005     1
    997   1012     1
    997   1001     1
    997   1019     1
    999   1007     1
    999   1014     1
    999   1005     1
   1000   1017     1
   1001   1006     1
   1001   1007     1
   1005   1019     1
   1006   1017     1
   1006   1019     1
   1007   1017     1
   1012   1014     1
   1014   1017     1
   1014   1019     1
   1021   1029     1
   1023   1030     1
   1023   1031     1
   1025   1041     1
   1025   1033     1
   1029   1044     1
   1029   1037     1
   1030   1045     1
   1030   1093     1
   1030   1033     1
   1031   1038     1
   1031   1069     1
   1031   1041     1
   1033   1050     1
   1037   1051     1
   1037   1049     1
   1038   1050     1
   1041   1074     1
   1044   1075     1
   1044   1073     1
   1045   1074     1
   1046   1050     1
   1046   1056     1
   1046   1055     1
   1047   1051     1
   1047   1069     1
   1047   1062     1
   1049   1055     1
   1049   1064     1
   1049   1057     1
   1050   1067     1
   1051   1057     1
   1051   1056     1
   1055   1069     1
   1056   1069     1
   1056   1067     1
   1057   1067     1
   1062   1064     1
   1064   1069     1
   1064   1067     1
   1070   1074     1
   1070   1080     1
   1070   1079     1
   1071   1075     1
   1071   1093     1
   1071   1086     1
   1073   1079     1
   1073   1088     1
   1073   1081     1
   1074   1091     1
   1075   1081     1
   1075   1080     1
   1079   1093     1
   1080   1093     1
   1080   1091     1
   1081   1091     1
   1086   1088     1
   1088   1093     1
   1088   1091     1
   1095   1103     1
   1097   1104     1
   1097   1105     1
   1099   1115     1
   1099   1107     1
   1103   1118     1
   1103   1111     1
   1104   1107     1
   1104   1119     1
   1104   1167     1
   1105   1115     1
   1105   1112     1
   1105   1143     1
   1107   1124     1
   1111   1123     1
   1111   1125     1
   1112   1124     1
   1115   1148     1
   1118   1147     1
   1118   1149     1
   1119   1148     1
   1120   1124     1
   1120   1130     1
   1120   1129     1
   1121   1136     1
   1121   1125     1
   1121   1143     1
   1123   1131     1
   1123   1138     1
   1123   1129     1
   1124   1141     1
   1125   1130     1
   1125   1131     1
   1129   1143     1
   1130   1141     1
   1130   1143     1
   1131   1141     1
   1136   1138     1
   1138   1141     1
   1138   1143     1
   1144   1148     1
   1144   1154     1
   1144   1153     1
   1145   1160     1
   1145   1149     1
   1145   1167     1
   1147   1155     1
   1147   1162     1
   1147   1153     1
   1148   1165     1
   1149   1154     1
   1149   1155     1
   1153   1167     1
   1154   1165     1
   1154   1167     1
   1155   1165     1
   1160   1162     1
   1162   1165     1
   1162   1167     1
   1169   1177     1
   1171   1178     1
   1171   1179     1
   1173   1189     1
   1173   1181     1
   1177   1192     1
   1177   1185     1
   1178   1193     1
   1178   1241     1
   1178   1181     1
   1179   1186     1
   1179   1217     1
   1179   1189     1
   1181   1198     1
   1185   1199     1
   1185   1197     1
   1186   1198     1
   1189   1222     1
   1192   1223     1
   1192   1221     1
   1193   1222     1
   1194   1198     1
   1194   1204     1
   1194   1203     1
   1195   1199     1
   1195   1217     1
   1195   1210     1
   1197   1203     1
   1197   1212     1
   1197   1205     1
   1198   1215     1
   1199   1205     1
   1199   1204     1
   1203   1217     1
   1204   1217     1
   1204   1215     1
   1205   1215     1
   1210   1212     1
   1212   1217     1
   1212   1215     1
   1218   1222     1
   1218   1228     1
   1218   1227     1
   1219   1223     1
   1219   1241     1
   1219   1234     1
   1221   1227     1
   1221   1236     1
   1221   1229     1
   1222   1239     1
   1223   1229     1
   1223   1228     1
   1227   1241     1
   1228   1241     1
   1228   1239     1
   1229   1239     1
   1234   1236     1
   1236   1241     1
   1236   1239     1
   1243   1251     1
   1245   1252     1
   1245   1253     1
   1247   1263     1
   1247   1255     1
   1251   1266     1
   1251   1259     1
   1252   1255     1
   1252   1267     1
   1252   1315     1
   1253   1263     1
   1253   1260     1
   1253   1291     1
   1255   1272     1
   1259   1271     1
   1259   1273     1
   1260   1272     1
   1263   1296     1
   1266   1295     1
   1266   1297     1
   1267   1296     1
   1268   1272     1
   1268   1278     1
   1268   1277     1
   1269   1284     1
   1269   1273     1
   1269   1291     1
   1271   1279     1
   1271   1286     1
   1271   1277     1
   1272   1289     1
   1273   1278     1
   1273   1279     1
   1277   1291     1
   1278   1289     1
   1278   1291     1
   1279   1289     1
   1284   1286     1
   1286   1289     1
   1286   1291     1
   1292   1296     1
   1292   1302     1
   1292   1301     1
   1293   1308     1
   1293   1297     1
   1293   1315     1
   1295   1303     1
   1295   1310     1
   1295   1301     1
   1296   1313     1
   1297   1302     1
   1297   1303     1
   1301   1315     1
   1302   1313     1
   1302   1315     1
   1303   1313     1
   1308   1310     1
   1310   1313     1
   1310   1315     1
   1317   1325     1
   1319   1326     1
   1319   1327     1
   1321   1337     1
   1321   1329     1
   1325   1340     1
   1325   1333     1
   1326   1341     1
   1326   1389     1
   1326   1329     1
   1327   1334     1
   1327   1365     1
   1327   1337     1
   1329   1346     1
   1333   1347     1
   1333   1345     1
   1334   1346     1
   1337   1370     1
   1340   1371     1
   1340   1369     1
   1341   1370     1
   1342   1346     1
   1342   1352     1
   1342   1351     1
   1343   1347     1
   1343   1365     1
   1343   1358     1
   1345   1351     1
   1345   1360     1
   1345   1353     1
   1346   1363     1
   1347   1353     1
   1347   1352     1
   1351   1365     1
   1352   1365     1
   1352   1363     1
   1353   1363     1
   1358   1360     1
   1360   1365     1
   1360   1363     1
   1366   1370     1
   1366   1376     1
   1366   1375     1
   1367   1371     1
   1367   1389     1
   1367   1382     1
   1369   1375     1
   1369   1384     1
   1369   1377     1
   1370   1387     1
   1371   1377     1
   1371   1376     1
   1375   1389     1
   1376   1389     1
   1376   1387     1
   1377   1387     1
   1382   1384     1
   1384   1389     1
   1384   1387     1
   1391   1399     1
   1393   1400     1
   1393   1401     1
   1395   1411     1
   1395   1403     1
   1399   1414     1
   1399   1407     1
   1400   1403     1
   1400   1415     1
   1400   1463     1
   1401   1411     1
   1401   1408     1
   1401   1439     1
   1403   1420     1
   1407   1419     1
   1407   1421     1
   1408   1420     1
   1411   1444     1
   1414   1443     1
   1414   1445     1
   1415   1444     1
   1416   1420     1
   1416   1426     1
   1416   1425     1
   1417   1432     1
   1417   1421     1
   1417   1439     1
   1419   1427     1
   1419   1434     1
   1419   1425     1
   1420   1437     1
   1421   1426     1
   1421   1427     1
   1425   1439     1
   1426   1437     1
   1426   1439     1
   1427   1437     1
   1432   1434     1
   1434   1437     1
   1434   1439     1
   1440   1444     1
   1440   1450     1
   1440   1449     1
   1441   1456     1
   1441   1445     1
   1441   1463     1
   1443   1451     1
   1443   1458     1
   1443   1449     1
   1444   1461     1
   1445   1450     1
   1445   1451     1
   1449   1463     1
   1450   1461     1
   1450   1463     1
   1451   1461     1
   1456   1458     1
   1458   1461     1
   1458   1463     1
   1465   1473     1
   1467   1474     1
   1467   1475     1
   1469   1485     1
   1469   1477     1
   1473   1488     1
   1473   1481     1
   1474   1489     1
   1474   1537     1
   1474   1477     1
   1475   1482     1
   1475   1513     1
   1475   1485     1
   1477   1494     1
   1481   1495     1
   1481   1493     1
   1482   1494     1
   1485   1518     1
   1488   1519     1
   1488   1517     1
   1489   1518     1
   1490   1494     1
   1490   1500     1
   1490   1499     1
   1491   1495     1
   1491   1513     1
   1491   1506     1
   1493   1499     1
   1493   1508     1
   1493   1501     1
   1494   1511     1
   1495   1501     1
   1495   1500     1
   1499   1513     1
   1500   1513     1
   1500   1511     1
   1501   1511     1
   1506   1508     1
   1508   1513     1
   1508   1511     1
   1514   1518     1
   1514   1524     1
   1514   1523     1
   1515   1519     1
   1515   1537     1
   1515   1530     1
   1517   1523     1
   1517   1532     1
   1517   1525     1
   1518   1535     1
   1519   1525     1
   1519   1524     1
   1523   1537     1
   1524   1537     1
   1524   1535     1
   1525   1535     1
   1530   1532     1
   1532   1537     1
   1532   1535     1
      1     23     1
      1     24     1
      1     37     1
      1     38     1
      1     39     1
      1     40     1
      2     29     1
      2     30     1
      2     31     1
      2     32     1
      2     42     1
     41      3     1
      3     25     1
      3     26     1
      3     27     1
      3     28     1
      4     21     1
      4     22     1
      4     35     1
      4     36     1
      4     33     1
      4     34     1
      5     23     1
      5     24     1
      5     27     1
      5     28     1
      6     23     1
      6     24     1
      6     25     1
      6     26     1
      7     21     1
      7     22     1
      7     31     1
      7     32     1
      8     21     1
      8     22     1
      8     29     1
      8     30     1
      9     42     1
      9     67     1
     10     27     1
     10     28     1
     10     65     1
     10     66     1
     11     42     1
     11     93     1
     12     25     1
     12     26     1
     12     91     1
     12     92     1
     41     13     1
     13    119     1
     14     29     1
     14     30     1
     14    117     1
     14    118     1
     41     15     1
     15    145     1
     16     31     1
     16     32     1
     16    143     1
     16    144     1
     17     35     1
     17     36     1
     17     93     1
     18     33     1
     18     34     1
     18     67     1
     19     39     1
     19     40     1
     19    145     1
     20     37     1
     20     38     1
     20    119     1
     41     21     1
     21     23     1
     21     24     1
     41     22     1
     22     23     1
     22     24     1
     23     42     1
     24     42     1
     25     42     1
     25     35     1
     25     36     1
     26     42     1
     26     35     1
     26     36     1
     27     42     1
     27     33     1
     27     34     1
     28     42     1
     28     33     1
     28     34     1
     41     29     1
     29     37     1
     29     38     1
     41     30     1
     30     37     1
     30     38     1
     41     31     1
     31     39     1
     31     40     1
     41     32     1
     32     39     1
     32     40     1
     33     52     1
     34     52     1
     35     78     1
     36     78     1
     37    104     1
     38    104     1
     39    130     1
     40    130     1
     43     59     1
     43     60     1
     43     61     1
     43     62     1
     43     65     1
     43     66     1
     44     57     1
     44     58     1
     44     63     1
     44     64     1
     45     55     1
     45     56     1
     45     63     1
     45     64     1
     46     68     1
     46    171     1
     47     55     1
     47     56     1
     47    169     1
     47    170     1
     48     68     1
     48    197     1
     49     57     1
     49     58     1
     49    195     1
     49    196     1
     50     55     1
     50     56     1
     50     57     1
     50     58     1
     50     67     1
     51     68     1
     52     63     1
     52     64     1
     53     59     1
     53     60     1
     53    171     1
     54     61     1
     54     62     1
     54    197     1
     55     68     1
     55     59     1
     55     60     1
     56     68     1
     56     59     1
     56     60     1
     57     68     1
     57     61     1
     57     62     1
     58     68     1
     58     61     1
     58     62     1
     59    156     1
     60    156     1
     61    182     1
     62    182     1
     63     68     1
     63     65     1
     63     66     1
     64     68     1
     64     65     1
     64     66     1
     65     67     1
     66     67     1
     69     85     1
     69     86     1
     69     87     1
     69     88     1
     69     91     1
     69     92     1
     70     83     1
     70     84     1
     70     89     1
     70     90     1
     71     81     1
     71     82     1
     71     89     1
     71     90     1
     72     94     1
     72    223     1
     73     81     1
     73     82     1
     73    221     1
     73    222     1
     74     94     1
     74    249     1
     75     83     1
     75     84     1
     75    247     1
     75    248     1
     76     81     1
     76     82     1
     76     83     1
     76     84     1
     76     93     1
     77     94     1
     78     89     1
     78     90     1
     79     85     1
     79     86     1
     79    223     1
     80     87     1
     80     88     1
     80    249     1
     81     94     1
     81     85     1
     81     86     1
     82     94     1
     82     85     1
     82     86     1
     83     94     1
     83     87     1
     83     88     1
     84     94     1
     84     87     1
     84     88     1
     85    208     1
     86    208     1
     87    234     1
     88    234     1
     89     94     1
     89     91     1
     89     92     1
     90     94     1
     90     91     1
     90     92     1
     91     93     1
     92     93     1
     95    111     1
     95    112     1
     95    113     1
     95    114     1
     95    117     1
     95    118     1
     96    109     1
     96    110     1
     96    115     1
     96    116     1
     97    107     1
     97    108     1
     97    115     1
     97    116     1
     98    120     1
     98    275     1
     99    107     1
     99    108     1
     99    273     1
     99    274     1
    100    120     1
    100    301     1
    101    109     1
    101    110     1
    101    299     1
    101    300     1
    102    107     1
    102    108     1
    102    109     1
    102    110     1
    102    119     1
    103    120     1
    104    115     1
    104    116     1
    105    111     1
    105    112     1
    105    275     1
    106    113     1
    106    114     1
    106    301     1
    107    120     1
    107    111     1
    107    112     1
    108    120     1
    108    111     1
    108    112     1
    109    120     1
    109    113     1
    109    114     1
    110    120     1
    110    113     1
    110    114     1
    111    260     1
    112    260     1
    113    286     1
    114    286     1
    115    120     1
    115    117     1
    115    118     1
    116    120     1
    116    117     1
    116    118     1
    117    119     1
    118    119     1
    121    137     1
    121    138     1
    121    139     1
    121    140     1
    121    143     1
    121    144     1
    122    135     1
    122    136     1
    122    141     1
    122    142     1
    123    133     1
    123    134     1
    123    141     1
    123    142     1
    124    146     1
    124    327     1
    125    133     1
    125    134     1
    125    325     1
    125    326     1
    126    146     1
    126    353     1
    127    135     1
    127    136     1
    127    351     1
    127    352     1
    128    133     1
    128    134     1
    128    135     1
    128    136     1
    128    145     1
    129    146     1
    130    141     1
    130    142     1
    131    137     1
    131    138     1
    131    327     1
    132    139     1
    132    140     1
    132    353     1
    133    146     1
    133    137     1
    133    138     1
    134    146     1
    134    137     1
    134    138     1
    135    146     1
    135    139     1
    135    140     1
    136    146     1
    136    139     1
    136    140     1
    137    312     1
    138    312     1
    139    338     1
    140    338     1
    141    146     1
    141    143     1
    141    144     1
    142    146     1
    142    143     1
    142    144     1
    143    145     1
    144    145     1
    147    163     1
    147    164     1
    147    165     1
    147    166     1
    147    169     1
    147    170     1
    148    161     1
    148    162     1
    148    167     1
    148    168     1
    149    159     1
    149    160     1
    149    167     1
    149    168     1
    150    172     1
    150    356     1
    151    159     1
    151    160     1
    151    358     1
    151    360     1
    152    172     1
    152    430     1
    153    161     1
    153    162     1
    153    432     1
    153    434     1
    154    159     1
    154    160     1
    154    161     1
    154    162     1
    154    171     1
    155    172     1
    156    167     1
    156    168     1
    157    163     1
    157    164     1
    157    356     1
    158    165     1
    158    166     1
    158    430     1
    159    172     1
    159    163     1
    159    164     1
    160    172     1
    160    163     1
    160    164     1
    161    172     1
    161    165     1
    161    166     1
    162    172     1
    162    165     1
    162    166     1
    163    355     1
    164    355     1
    165    429     1
    166    429     1
    167    172     1
    167    169     1
    167    170     1
    168    172     1
    168    169     1
    168    170     1
    169    171     1
    170    171     1
    173    189     1
    173    190     1
    173    191     1
    173    192     1
    173    195     1
    173    196     1
    174    187     1
    174    188     1
    174    193     1
    174    194     1
    175    185     1
    175    186     1
    175    193     1
    175    194     1
    176    198     1
    176    504     1
    177    185     1
    177    186     1
    177    506     1
    177    508     1
    178    198     1
    178    578     1
    179    187     1
    179    188     1
    179    580     1
    179    582     1
    180    185     1
    180    186     1
    180    187     1
    180    188     1
    180    197     1
    181    198     1
    182    193     1
    182    194     1
    183    189     1
    183    190     1
    183    504     1
    184    191     1
    184    192     1
    184    578     1
    185    198     1
    185    189     1
    185    190     1
    186    198     1
    186    189     1
    186    190     1
    187    198     1
    187    191     1
    187    192     1
    188    198     1
    188    191     1
    188    192     1
    189    503     1
    190    503     1
    191    577     1
    192    577     1
    193    198     1
    193    195     1
    193    196     1
    194    198     1
    194    195     1
    194    196     1
    195    197     1
    196    197     1
    199    215     1
    199    216     1
    199    217     1
    199    218     1
    199    221     1
    199    222     1
    200    213     1
    200    214     1
    200    219     1
    200    220     1
    201    211     1
    201    212     1
    201    219     1
    201    220     1
    202    224     1
    202    652     1
    203    211     1
    203    212     1
    203    654     1
    203    656     1
    204    224     1
    204    726     1
    205    213     1
    205    214     1
    205    728     1
    205    730     1
    206    211     1
    206    212     1
    206    213     1
    206    214     1
    206    223     1
    207    224     1
    208    219     1
    208    220     1
    209    215     1
    209    216     1
    209    652     1
    210    217     1
    210    218     1
    210    726     1
    211    224     1
    211    215     1
    211    216     1
    212    224     1
    212    215     1
    212    216     1
    213    224     1
    213    217     1
    213    218     1
    214    224     1
    214    217     1
    214    218     1
    215    651     1
    216    651     1
    217    725     1
    218    725     1
    219    224     1
    219    221     1
    219    222     1
    220    224     1
    220    221     1
    220    222     1
    221    223     1
    222    223     1
    225    241     1
    225    242     1
    225    243     1
    225    244     1
    225    247     1
    225    248     1
    226    239     1
    226    240     1
    226    245     1
    226    246     1
    227    237     1
    227    238     1
    227    245     1
    227    246     1
    228    250     1
    228    800     1
    229    237     1
    229    238     1
    229    802     1
    229    804     1
    230    250     1
    230    874     1
    231    239     1
    231    240     1
    231    876     1
    231    878     1
    232    237     1
    232    238     1
    232    239     1
    232    240     1
    232    249     1
    233    250     1
    234    245     1
    234    246     1
    235    241     1
    235    242     1
    235    800     1
    236    243     1
    236    244     1
    236    874     1
    237    250     1
    237    241     1
    237    242     1
    238    250     1
    238    241     1
    238    242     1
    239    250     1
    239    243     1
    239    244     1
    240    250     1
    240    243     1
    240    244     1
    241    799     1
    242    799     1
    243    873     1
    244    873     1
    245    250     1
    245    247     1
    245    248     1
    246    250     1
    246    247     1
    246    248     1
    247    249     1
    248    249     1
    251    267     1
    251    268     1
    251    269     1
    251    270     1
    251    273     1
    251    274     1
    252    265     1
    252    266     1
    252    271     1
    252    272     1
    253    263     1
    253    264     1
    253    271     1
    253    272     1
    254    276     1
    254    948     1
    255    263     1
    255    264     1
    255    950     1
    255    952     1
    256    276     1
    256   1022     1
    257    265     1
    257    266     1
    257   1024     1
    257   1026     1
    258    263     1
    258    264     1
    258    265     1
    258    266     1
    258    275     1
    259    276     1
    260    271     1
    260    272     1
    261    267     1
    261    268     1
    261    948     1
    262    269     1
    262    270     1
    262   1022     1
    263    276     1
    263    267     1
    263    268     1
    264    276     1
    264    267     1
    264    268     1
    265    276     1
    265    269     1
    265    270     1
    266    276     1
    266    269     1
    266    270     1
    267    947     1
    268    947     1
    269   1021     1
    270   1021     1
    271    276     1
    271    273     1
    271    274     1
    272    276     1
    272    273     1
    272    274     1
    273    275     1
    274    275     1
    277    293     1
    277    294     1
    277    295     1
    277    296     1
    277    299     1
    277    300     1
    278    291     1
    278    292     1
    278    297     1
    278    298     1
    279    289     1
    279    290     1
    279    297     1
    279    298     1
    280    302     1
    280   1096     1
    281    289     1
    281    290     1
    281   1098     1
    281   1100     1
    282    302     1
    282   1170     1
    283    291     1
    283    292     1
    283   1172     1
    283   1174     1
    284    289     1
    284    290     1
    284    291     1
    284    292     1
    284    301     1
    285    302     1
    286    297     1
    286    298     1
    287    293     1
    287    294     1
    287   1096     1
    288    295     1
    288    296     1
    288   1170     1
    289    302     1
    289    293     1
    289    294     1
    290    302     1
    290    293     1
    290    294     1
    291    302     1
    291    295     1
    291    296     1
    292    302     1
    292    295     1
    292    296     1
    293   1095     1
    294   1095     1
    295   1169     1
    296   1169     1
    297    302     1
    297    299     1
    297    300     1
    298    302     1
    298    299     1
    298    300     1
    299    301     1
    300    301     1
    303    319     1
    303    320     1
    303    321     1
    303    322     1
    303    325     1
    303    326     1
    304    317     1
    304    318     1
    304    323     1
    304    324     1
    305    315     1
    305    316     1
    305    323     1
    305    324     1
    306    328     1
    306   1244     1
    307    315     1
    307    316     1
    307   1246     1
    307   1248     1
    308    328     1
    308   1318     1
    309    317     1
    309    318     1
    309   1320     1
    309   1322     1
    310    315     1
    310    316     1
    310    317     1
    310    318     1
    310    327     1
    311    328     1
    312    323     1
    312    324     1
    313    319     1
    313    320     1
    313   1244     1
    314    321     1
    314    322     1
    314   1318     1
    315    328     1
    315    319     1
    315    320     1
    316    328     1
    316    319     1
    316    320     1
    317    328     1
    317    321     1
    317    322     1
    318    328     1
    318    321     1
    318    322     1
    319   1243     1
    320   1243     1
    321   1317     1
    322   1317     1
    323    328     1
    323    325     1
    323    326     1
    324    328     1
    324    325     1
    324    326     1
    325    327     1
    326    327     1
    329    345     1
    329    346     1
    329    347     1
    329    348     1
    329    351     1
    329    352     1
    330    343     1
    330    344     1
    330    349     1
    330    350     1
    331    341     1
    331    342     1
    331    349     1
    331    350     1
    332    354     1
    332   1392     1
    333    341     1
    333    342     1
    333   1394     1
    333   1396     1
    334    354     1
    334   1466     1
    335    343     1
    335    344     1
    335   1468     1
    335   1470     1
    336    341     1
    336    342     1
    336    343     1
    336    344     1
    336    353     1
    337    354     1
    338    349     1
    338    350     1
    339    345     1
    339    346     1
    339   1392     1
    340    347     1
    340    348     1
    340   1466     1
    341    354     1
    341    345     1
    341    346     1
    342    354     1
    342    345     1
    342    346     1
    343    354     1
    343    347     1
    343    348     1
    344    354     1
    344    347     1
    344    348     1
    345   1391     1
    346   1391     1
    347   1465     1
    348   1465     1
    349    354     1
    349    351     1
    349    352     1
    350    354     1
    350    351     1
    350    352     1
    351    353     1
    352    353     1
    355    361     1
    355    362     1
    356    359     1
    356    358     1
    356    360     1
    357    428     1
    358    363     1
    358    361     1
    358    362     1
    359    373     1
    359    374     1
    359    366     1
    359    368     1
    360    363     1
    360    361     1
    360    362     1
    361    364     1
    361    365     1
    361    428     1
    362    364     1
    362    365     1
    362    428     1
    363    376     1
    363    377     1
    363    369     1
    363    370     1
    364    366     1
    364    368     1
    365    373     1
    365    374     1
    366    428     1
    366    371     1
    366    369     1
    366    370     1
    367    428     1
    367    393     1
    368    428     1
    368    371     1
    368    369     1
    368    370     1
    369    372     1
    369    403     1
    370    372     1
    370    403     1
    371    386     1
    372    393     1
    373    428     1
    373    378     1
    373    376     1
    373    377     1
    374    428     1
    374    378     1
    374    376     1
    374    377     1
    375    428     1
    375    417     1
    376    379     1
    376    427     1
    377    379     1
    377    427     1
    378    410     1
    379    417     1
    380    387     1
    380    402     1
    380    397     1
    380    388     1
    381    394     1
    381    395     1
    381    386     1
    381    392     1
    382    383     1
    382    401     1
    382    400     1
    382    396     1
    382    394     1
    382    395     1
    382    385     1
    383    402     1
    383    388     1
    383    393     1
    384    400     1
    384    392     1
    384    399     1
    385    387     1
    385    393     1
    386    390     1
    386    387     1
    386    389     1
    386    398     1
    386    388     1
    386    393     1
    387    401     1
    387    400     1
    387    403     1
    387    392     1
    388    403     1
    388    399     1
    390    400     1
    391    400     1
    394    398     1
    394    397     1
    395    398     1
    395    397     1
    398    400     1
    398    399     1
    400    402     1
    404    411     1
    404    426     1
    404    421     1
    404    412     1
    405    418     1
    405    419     1
    405    410     1
    405    416     1
    406    407     1
    406    425     1
    406    424     1
    406    420     1
    406    418     1
    406    419     1
    406    409     1
    407    426     1
    407    412     1
    407    417     1
    408    424     1
    408    416     1
    408    423     1
    409    411     1
    409    417     1
    410    414     1
    410    411     1
    410    413     1
    410    422     1
    410    412     1
    410    417     1
    411    425     1
    411    424     1
    411    427     1
    411    416     1
    412    427     1
    412    423     1
    414    424     1
    415    424     1
    418    422     1
    418    421     1
    419    422     1
    419    421     1
    422    424     1
    422    423     1
    424    426     1
    429    435     1
    429    436     1
    430    433     1
    430    432     1
    430    434     1
    431    502     1
    432    437     1
    432    435     1
    432    436     1
    433    447     1
    433    448     1
    433    440     1
    433    442     1
    434    437     1
    434    435     1
    434    436     1
    435    438     1
    435    439     1
    435    502     1
    436    438     1
    436    439     1
    436    502     1
    437    450     1
    437    451     1
    437    443     1
    437    444     1
    438    440     1
    438    442     1
    439    447     1
    439    448     1
    440    445     1
    440    443     1
    440    444     1
    440    502     1
    441    467     1
    441    502     1
    442    445     1
    442    443     1
    442    444     1
    442    502     1
    443    446     1
    443    477     1
    444    446     1
    444    477     1
    445    460     1
    446    467     1
    447    452     1
    447    450     1
    447    451     1
    447    502     1
    448    452     1
    448    450     1
    448    451     1
    448    502     1
    449    491     1
    449    502     1
    450    453     1
    450    501     1
    451    453     1
    451    501     1
    452    484     1
    453    491     1
    454    461     1
    454    476     1
    454    471     1
    454    462     1
    455    460     1
    455    466     1
    455    468     1
    455    469     1
    456    457     1
    456    475     1
    456    474     1
    456    470     1
    456    468     1
    456    469     1
    456    459     1
    457    462     1
    457    467     1
    457    476     1
    458    473     1
    458    466     1
    458    474     1
    459    467     1
    459    461     1
    460    463     1
    460    472     1
    460    462     1
    460    467     1
    460    464     1
    460    461     1
    461    477     1
    461    466     1
    461    475     1
    461    474     1
    462    473     1
    462    477     1
    464    474     1
    465    474     1
    468    471     1
    468    472     1
    469    471     1
    469    472     1
    472    473     1
    472    474     1
    474    476     1
    478    485     1
    478    500     1
    478    495     1
    478    486     1
    479    484     1
    479    490     1
    479    492     1
    479    493     1
    480    481     1
    480    499     1
    480    498     1
    480    494     1
    480    492     1
    480    493     1
    480    483     1
    481    486     1
    481    491     1
    481    500     1
    482    497     1
    482    490     1
    482    498     1
    483    491     1
    483    485     1
    484    487     1
    484    496     1
    484    486     1
    484    491     1
    484    488     1
    484    485     1
    485    501     1
    485    490     1
    485    499     1
    485    498     1
    486    497     1
    486    501     1
    488    498     1
    489    498     1
    492    495     1
    492    496     1
    493    495     1
    493    496     1
    496    497     1
    496    498     1
    498    500     1
    503    509     1
    503    510     1
    504    507     1
    504    506     1
    504    508     1
    505    576     1
    506    511     1
    506    509     1
    506    510     1
    507    521     1
    507    522     1
    507    514     1
    507    516     1
    508    511     1
    508    509     1
    508    510     1
    509    512     1
    509    513     1
    509    576     1
    510    512     1
    510    513     1
    510    576     1
    511    524     1
    511    525     1
    511    517     1
    511    518     1
    512    514     1
    512    516     1
    513    521     1
    513    522     1
    514    576     1
    514    519     1
    514    517     1
    514    518     1
    515    576     1
    515    541     1
    516    576     1
    516    519     1
    516    517     1
    516    518     1
    517    520     1
    517    551     1
    518    520     1
    518    551     1
    519    534     1
    520    541     1
    521    576     1
    521    526     1
    521    524     1
    521    525     1
    522    576     1
    522    526     1
    522    524     1
    522    525     1
    523    576     1
    523    565     1
    524    527     1
    524    575     1
    525    527     1
    525    575     1
    526    558     1
    527    565     1
    528    535     1
    528    550     1
    528    545     1
    528    536     1
    529    542     1
    529    543     1
    529    534     1
    529    540     1
    530    531     1
    530    549     1
    530    548     1
    530    544     1
    530    542     1
    530    543     1
    530    533     1
    531    550     1
    531    536     1
    531    541     1
    532    548     1
    532    540     1
    532    547     1
    533    535     1
    533    541     1
    534    538     1
    534    535     1
    534    537     1
    534    546     1
    534    536     1
    534    541     1
    535    549     1
    535    548     1
    535    551     1
    535    540     1
    536    551     1
    536    547     1
    538    548     1
    539    548     1
    542    546     1
    542    545     1
    543    546     1
    543    545     1
    546    548     1
    546    547     1
    548    550     1
    552    559     1
    552    574     1
    552    569     1
    552    560     1
    553    566     1
    553    567     1
    553    558     1
    553    564     1
    554    555     1
    554    573     1
    554    572     1
    554    568     1
    554    566     1
    554    567     1
    554    557     1
    555    574     1
    555    560     1
    555    565     1
    556    572     1
    556    564     1
    556    571     1
    557    559     1
    557    565     1
    558    562     1
    558    559     1
    558    561     1
    558    570     1
    558    560     1
    558    565     1
    559    573     1
    559    572     1
    559    575     1
    559    564     1
    560    575     1
    560    571     1
    562    572     1
    563    572     1
    566    570     1
    566    569     1
    567    570     1
    567    569     1
    570    572     1
    570    571     1
    572    574     1
    577    583     1
    577    584     1
    578    581     1
    578    580     1
    578    582     1
    579    650     1
    580    585     1
    580    583     1
    580    584     1
    581    595     1
    581    596     1
    581    588     1
    581    590     1
    582    585     1
    582    583     1
    582    584     1
    583    586     1
    583    587     1
    583    650     1
    584    586     1
    584    587     1
    584    650     1
    585    598     1
    585    599     1
    585    591     1
    585    592     1
    586    588     1
    586    590     1
    587    595     1
    587    596     1
    588    593     1
    588    591     1
    588    592     1
    588    650     1
    589    615     1
    589    650     1
    590    593     1
    590    591     1
    590    592     1
    590    650     1
    591    594     1
    591    625     1
    592    594     1
    592    625     1
    593    608     1
    594    615     1
    595    600     1
    595    598     1
    595    599     1
    595    650     1
    596    600     1
    596    598     1
    596    599     1
    596    650     1
    597    639     1
    597    650     1
    598    601     1
    598    649     1
    599    601     1
    599    649     1
    600    632     1
    601    639     1
    602    609     1
    602    624     1
    602    619     1
    602    610     1
    603    608     1
    603    614     1
    603    616     1
    603    617     1
    604    605     1
    604    623     1
    604    622     1
    604    618     1
    604    616     1
    604    617     1
    604    607     1
    605    610     1
    605    615     1
    605    624     1
    606    621     1
    606    614     1
    606    622     1
    607    615     1
    607    609     1
    608    611     1
    608    620     1
    608    610     1
    608    615     1
    608    612     1
    608    609     1
    609    625     1
    609    614     1
    609    623     1
    609    622     1
    610    621     1
    610    625     1
    612    622     1
    613    622     1
    616    619     1
    616    620     1
    617    619     1
    617    620     1
    620    621     1
    620    622     1
    622    624     1
    626    633     1
    626    648     1
    626    643     1
    626    634     1
    627    632     1
    627    638     1
    627    640     1
    627    641     1
    628    629     1
    628    647     1
    628    646     1
    628    642     1
    628    640     1
    628    641     1
    628    631     1
    629    634     1
    629    639     1
    629    648     1
    630    645     1
    630    638     1
    630    646     1
    631    639     1
    631    633     1
    632    635     1
    632    644     1
    632    634     1
    632    639     1
    632    636     1
    632    633     1
    633    649     1
    633    638     1
    633    647     1
    633    646     1
    634    645     1
    634    649     1
    636    646     1
    637    646     1
    640    643     1
    640    644     1
    641    643     1
    641    644     1
    644    645     1
    644    646     1
    646    648     1
    651    657     1
    651    658     1
    652    655     1
    652    654     1
    652    656     1
    653    724     1
    654    659     1
    654    657     1
    654    658     1
    655    669     1
    655    670     1
    655    662     1
    655    664     1
    656    659     1
    656    657     1
    656    658     1
    657    660     1
    657    661     1
    657    724     1
    658    660     1
    658    661     1
    658    724     1
    659    672     1
    659    673     1
    659    665     1
    659    666     1
    660    662     1
    660    664     1
    661    669     1
    661    670     1
    662    724     1
    662    667     1
    662    665     1
    662    666     1
    663    724     1
    663    689     1
    664    724     1
    664    667     1
    664    665     1
    664    666     1
    665    668     1
    665    699     1
    666    668     1
    666    699     1
    667    682     1
    668    689     1
    669    724     1
    669    674     1
    669    672     1
    669    673     1
    670    724     1
    670    674     1
    670    672     1
    670    673     1
    671    724     1
    671    713     1
    672    675     1
    672    723     1
    673    675     1
    673    723     1
    674    706     1
    675    713     1
    676    683     1
    676    698     1
    676    693     1
    676    684     1
    677    690     1
    677    691     1
    677    682     1
    677    688     1
    678    679     1
    678    697     1
    678    696     1
    678    692     1
    678    690     1
    678    691     1
    678    681     1
    679    698     1
    679    684     1
    679    689     1
    680    696     1
    680    688     1
    680    695     1
    681    683     1
    681    689     1
    682    686     1
    682    683     1
    682    685     1
    682    694     1
    682    684     1
    682    689     1
    683    697     1
    683    696     1
    683    699     1
    683    688     1
    684    699     1
    684    695     1
    686    696     1
    687    696     1
    690    694     1
    690    693     1
    691    694     1
    691    693     1
    694    696     1
    694    695     1
    696    698     1
    700    707     1
    700    722     1
    700    717     1
    700    708     1
    701    714     1
    701    715     1
    701    706     1
    701    712     1
    702    703     1
    702    721     1
    702    720     1
    702    716     1
    702    714     1
    702    715     1
    702    705     1
    703    722     1
    703    708     1
    703    713     1
    704    720     1
    704    712     1
    704    719     1
    705    707     1
    705    713     1
    706    710     1
    706    707     1
    706    709     1
    706    718     1
    706    708     1
    706    713     1
    707    721     1
    707    720     1
    707    723     1
    707    712     1
    708    723     1
    708    719     1
    710    720     1
    711    720     1
    714    718     1
    714    717     1
    715    718     1
    715    717     1
    718    720     1
    718    719     1
    720    722     1
    725    731     1
    725    732     1
    726    729     1
    726    728     1
    726    730     1
    727    798     1
    728    733     1
    728    731     1
    728    732     1
    729    743     1
    729    744     1
    729    736     1
    729    738     1
    730    733     1
    730    731     1
    730    732     1
    731    734     1
    731    735     1
    731    798     1
    732    734     1
    732    735     1
    732    798     1
    733    746     1
    733    747     1
    733    739     1
    733    740     1
    734    736     1
    734    738     1
    735    743     1
    735    744     1
    736    741     1
    736    739     1
    736    740     1
    736    798     1
    737    763     1
    737    798     1
    738    741     1
    738    739     1
    738    740     1
    738    798     1
    739    742     1
    739    773     1
    740    742     1
    740    773     1
    741    756     1
    742    763     1
    743    748     1
    743    746     1
    743    747     1
    743    798     1
    744    748     1
    744    746     1
    744    747     1
    744    798     1
    745    787     1
    745    798     1
    746    749     1
    746    797     1
    747    749     1
    747    797     1
    748    780     1
    749    787     1
    750    757     1
    750    772     1
    750    767     1
    750    758     1
    751    756     1
    751    762     1
    751    764     1
    751    765     1
    752    753     1
    752    771     1
    752    770     1
    752    766     1
    752    764     1
    752    765     1
    752    755     1
    753    758     1
    753    763     1
    753    772     1
    754    769     1
    754    762     1
    754    770     1
    755    763     1
    755    757     1
    756    759     1
    756    768     1
    756    758     1
    756    763     1
    756    760     1
    756    757     1
    757    773     1
    757    762     1
    757    771     1
    757    770     1
    758    769     1
    758    773     1
    760    770     1
    761    770     1
    764    767     1
    764    768     1
    765    767     1
    765    768     1
    768    769     1
    768    770     1
    770    772     1
    774    781     1
    774    796     1
    774    791     1
    774    782     1
    775    780     1
    775    786     1
    775    788     1
    775    789     1
    776    777     1
    776    795     1
    776    794     1
    776    790     1
    776    788     1
    776    789     1
    776    779     1
    777    782     1
    777    787     1
    777    796     1
    778    793     1
    778    786     1
    778    794     1
    779    787     1
    779    781     1
    780    783     1
    780    792     1
    780    782     1
    780    787     1
    780    784     1
    780    781     1
    781    797     1
    781    786     1
    781    795     1
    781    794     1
    782    793     1
    782    797     1
    784    794     1
    785    794     1
    788    791     1
    788    792     1
    789    791     1
    789    792     1
    792    793     1
    792    794     1
    794    796     1
    799    805     1
    799    806     1
    800    803     1
    800    802     1
    800    804     1
    801    872     1
    802    807     1
    802    805     1
    802    806     1
    803    817     1
    803    818     1
    803    810     1
    803    812     1
    804    807     1
    804    805     1
    804    806     1
    805    808     1
    805    809     1
    805    872     1
    806    808     1
    806    809     1
    806    872     1
    807    820     1
    807    821     1
    807    813     1
    807    814     1
    808    810     1
    808    812     1
    809    817     1
    809    818     1
    810    872     1
    810    815     1
    810    813     1
    810    814     1
    811    872     1
    811    837     1
    812    872     1
    812    815     1
    812    813     1
    812    814     1
    813    816     1
    813    847     1
    814    816     1
    814    847     1
    815    830     1
    816    837     1
    817    872     1
    817    822     1
    817    820     1
    817    821     1
    818    872     1
    818    822     1
    818    820     1
    818    821     1
    819    872     1
    819    861     1
    820    823     1
    820    871     1
    821    823     1
    821    871     1
    822    854     1
    823    861     1
    824    831     1
    824    846     1
    824    841     1
    824    832     1
    825    838     1
    825    839     1
    825    830     1
    825    836     1
    826    827     1
    826    845     1
    826    844     1
    826    840     1
    826    838     1
    826    839     1
    826    829     1
    827    846     1
    827    832     1
    827    837     1
    828    844     1
    828    836     1
    828    843     1
    829    831     1
    829    837     1
    830    834     1
    830    831     1
    830    833     1
    830    842     1
    830    832     1
    830    837     1
    831    845     1
    831    844     1
    831    847     1
    831    836     1
    832    847     1
    832    843     1
    834    844     1
    835    844     1
    838    842     1
    838    841     1
    839    842     1
    839    841     1
    842    844     1
    842    843     1
    844    846     1
    848    855     1
    848    870     1
    848    865     1
    848    856     1
    849    862     1
    849    863     1
    849    854     1
    849    860     1
    850    851     1
    850    869     1
    850    868     1
    850    864     1
    850    862     1
    850    863     1
    850    853     1
    851    870     1
    851    856     1
    851    861     1
    852    868     1
    852    860     1
    852    867     1
    853    855     1
    853    861     1
    854    858     1
    854    855     1
    854    857     1
    854    866     1
    854    856     1
    854    861     1
    855    869     1
    855    868     1
    855    871     1
    855    860     1
    856    871     1
    856    867     1
    858    868     1
    859    868     1
    862    866     1
    862    865     1
    863    866     1
    863    865     1
    866    868     1
    866    867     1
    868    870     1
    873    879     1
    873    880     1
    874    877     1
    874    876     1
    874    878     1
    875    946     1
    876    881     1
    876    879     1
    876    880     1
    877    891     1
    877    892     1
    877    884     1
    877    886     1
    878    881     1
    878    879     1
    878    880     1
    879    882     1
    879    883     1
    879    946     1
    880    882     1
    880    883     1
    880    946     1
    881    894     1
    881    895     1
    881    887     1
    881    888     1
    882    884     1
    882    886     1
    883    891     1
    883    892     1
    884    889     1
    884    887     1
    884    888     1
    884    946     1
    885    911     1
    885    946     1
    886    889     1
    886    887     1
    886    888     1
    886    946     1
    887    890     1
    887    921     1
    888    890     1
    888    921     1
    889    904     1
    890    911     1
    891    896     1
    891    894     1
    891    895     1
    891    946     1
    892    896     1
    892    894     1
    892    895     1
    892    946     1
    893    935     1
    893    946     1
    894    897     1
    894    945     1
    895    897     1
    895    945     1
    896    928     1
    897    935     1
    898    905     1
    898    920     1
    898    915     1
    898    906     1
    899    904     1
    899    910     1
    899    912     1
    899    913     1
    900    901     1
    900    919     1
    900    918     1
    900    914     1
    900    912     1
    900    913     1
    900    903     1
    901    906     1
    901    911     1
    901    920     1
    902    917     1
    902    910     1
    902    918     1
    903    911     1
    903    905     1
    904    907     1
    904    916     1
    904    906     1
    904    911     1
    904    908     1
    904    905     1
    905    921     1
    905    910     1
    905    919     1
    905    918     1
    906    917     1
    906    921     1
    908    918     1
    909    918     1
    912    915     1
    912    916     1
    913    915     1
    913    916     1
    916    917     1
    916    918     1
    918    920     1
    922    929     1
    922    944     1
    922    939     1
    922    930     1
    923    928     1
    923    934     1
    923    936     1
    923    937     1
    924    925     1
    924    943     1
    924    942     1
    924    938     1
    924    936     1
    924    937     1
    924    927     1
    925    930     1
    925    935     1
    925    944     1
    926    941     1
    926    934     1
    926    942     1
    927    935     1
    927    929     1
    928    931     1
    928    940     1
    928    930     1
    928    935     1
    928    932     1
    928    929     1
    929    945     1
    929    934     1
    929    943     1
    929    942     1
    930    941     1
    930    945     1
    932    942     1
    933    942     1
    936    939     1
    936    940     1
    937    939     1
    937    940     1
    940    941     1
    940    942     1
    942    944     1
    947    953     1
    947    954     1
    948    951     1
    948    950     1
    948    952     1
    949   1020     1
    950    955     1
    950    953     1
    950    954     1
    951    965     1
    951    966     1
    951    958     1
    951    960     1
    952    955     1
    952    953     1
    952    954     1
    953    956     1
    953    957     1
    953   1020     1
    954    956     1
    954    957     1
    954   1020     1
    955    968     1
    955    969     1
    955    961     1
    955    962     1
    956    958     1
    956    960     1
    957    965     1
    957    966     1
    958   1020     1
    958    963     1
    958    961     1
    958    962     1
    959   1020     1
    959    985     1
    960   1020     1
    960    963     1
    960    961     1
    960    962     1
    961    964     1
    961    995     1
    962    964     1
    962    995     1
    963    978     1
    964    985     1
    965   1020     1
    965    970     1
    965    968     1
    965    969     1
    966   1020     1
    966    970     1
    966    968     1
    966    969     1
    967   1020     1
    967   1009     1
    968    971     1
    968   1019     1
    969    971     1
    969   1019     1
    970   1002     1
    971   1009     1
    972    979     1
    972    994     1
    972    989     1
    972    980     1
    973    986     1
    973    987     1
    973    978     1
    973    984     1
    974    975     1
    974    993     1
    974    992     1
    974    988     1
    974    986     1
    974    987     1
    974    977     1
    975    994     1
    975    980     1
    975    985     1
    976    992     1
    976    984     1
    976    991     1
    977    979     1
    977    985     1
    978    982     1
    978    979     1
    978    981     1
    978    990     1
    978    980     1
    978    985     1
    979    993     1
    979    992     1
    979    995     1
    979    984     1
    980    995     1
    980    991     1
    982    992     1
    983    992     1
    986    990     1
    986    989     1
    987    990     1
    987    989     1
    990    992     1
    990    991     1
    992    994     1
    996   1003     1
    996   1018     1
    996   1013     1
    996   1004     1
    997   1010     1
    997   1011     1
    997   1002     1
    997   1008     1
    998    999     1
    998   1017     1
    998   1016     1
    998   1012     1
    998   1010     1
    998   1011     1
    998   1001     1
    999   1018     1
    999   1004     1
    999   1009     1
   1000   1016     1
   1000   1008     1
   1000   1015     1
   1001   1003     1
   1001   1009     1
   1002   1006     1
   1002   1003     1
   1002   1005     1
   1002   1014     1
   1002   1004     1
   1002   1009     1
   1003   1017     1
   1003   1016     1
   1003   1019     1
   1003   1008     1
   1004   1019     1
   1004   1015     1
   1006   1016     1
   1007   1016     1
   1010   1014     1
   1010   1013     1
   1011   1014     1
   1011   1013     1
   1014   1016     1
   1014   1015     1
   1016   1018     1
   1021   1027     1
   1021   1028     1
   1022   1025     1
   1022   1024     1
   1022   1026     1
   1023   1094     1
   1024   1029     1
   1024   1027     1
   1024   1028     1
   1025   1039     1
   1025   1040     1
   1025   1032     1
   1025   1034     1
   1026   1029     1
   1026   1027     1
   1026   1028     1
   1027   1030     1
   1027   1031     1
   1027   1094     1
   1028   1030     1
   1028   1031     1
   1028   1094     1
   1029   1042     1
   1029   1043     1
   1029   1035     1
   1029   1036     1
   1030   1032     1
   1030   1034     1
   1031   1039     1
   1031   1040     1
   1032   1037     1
   1032   1035     1
   1032   1036     1
   1032   1094     1
   1033   1059     1
   1033   1094     1
   1034   1037     1
   1034   1035     1
   1034   1036     1
   1034   1094     1
   1035   1038     1
   1035   1069     1
   1036   1038     1
   1036   1069     1
   1037   1052     1
   1038   1059     1
   1039   1044     1
   1039   1042     1
   1039   1043     1
   1039   1094     1
   1040   1044     1
   1040   1042     1
   1040   1043     1
   1040   1094     1
   1041   1083     1
   1041   1094     1
   1042   1045     1
   1042   1093     1
   1043   1045     1
   1043   1093     1
   1044   1076     1
   1045   1083     1
   1046   1053     1
   1046   1068     1
   1046   1063     1
   1046   1054     1
   1047   1052     1
   1047   1058     1
   1047   1060     1
   1047   1061     1
   1048   1049     1
   1048   1067     1
   1048   1066     1
   1048   1062     1
   1048   1060     1
   1048   1061     1
   1048   1051     1
   1049   1054     1
   1049   1059     1
   1049   1068     1
   1050   1065     1
   1050   1058     1
   1050   1066     1
   1051   1059     1
   1051   1053     1
   1052   1055     1
   1052   1064     1
   1052   1054     1
   1052   1059     1
   1052   1056     1
   1052   1053     1
   1053   1069     1
   1053   1058     1
   1053   1067     1
   1053   1066     1
   1054   1065     1
   1054   1069     1
   1056   1066     1
   1057   1066     1
   1060   1063     1
   1060   1064     1
   1061   1063     1
   1061   1064     1
   1064   1065     1
   1064   1066     1
   1066   1068     1
   1070   1077     1
   1070   1092     1
   1070   1087     1
   1070   1078     1
   1071   1076     1
   1071   1082     1
   1071   1084     1
   1071   1085     1
   1072   1073     1
   1072   1091     1
   1072   1090     1
   1072   1086     1
   1072   1084     1
   1072   1085     1
   1072   1075     1
   1073   1078     1
   1073   1083     1
   1073   1092     1
   1074   1089     1
   1074   1082     1
   1074   1090     1
   1075   1083     1
   1075   1077     1
   1076   1079     1
   1076   1088     1
   1076   1078     1
   1076   1083     1
   1076   1080     1
   1076   1077     1
   1077   1093     1
   1077   1082     1
   1077   1091     1
   1077   1090     1
   1078   1089     1
   1078   1093     1
   1080   1090     1
   1081   1090     1
   1084   1087     1
   1084   1088     1
   1085   1087     1
   1085   1088     1
   1088   1089     1
   1088   1090     1
   1090   1092     1
   1095   1101     1
   1095   1102     1
   1096   1099     1
   1096   1098     1
   1096   1100     1
   1097   1168     1
   1098   1103     1
   1098   1101     1
   1098   1102     1
   1099   1113     1
   1099   1114     1
   1099   1106     1
   1099   1108     1
   1100   1103     1
   1100   1101     1
   1100   1102     1
   1101   1104     1
   1101   1105     1
   1101   1168     1
   1102   1104     1
   1102   1105     1
   1102   1168     1
   1103   1116     1
   1103   1117     1
   1103   1109     1
   1103   1110     1
   1104   1106     1
   1104   1108     1
   1105   1113     1
   1105   1114     1
   1106   1168     1
   1106   1111     1
   1106   1109     1
   1106   1110     1
   1107   1168     1
   1107   1133     1
   1108   1168     1
   1108   1111     1
   1108   1109     1
   1108   1110     1
   1109   1112     1
   1109   1143     1
   1110   1112     1
   1110   1143     1
   1111   1126     1
   1112   1133     1
   1113   1168     1
   1113   1118     1
   1113   1116     1
   1113   1117     1
   1114   1168     1
   1114   1118     1
   1114   1116     1
   1114   1117     1
   1115   1168     1
   1115   1157     1
   1116   1119     1
   1116   1167     1
   1117   1119     1
   1117   1167     1
   1118   1150     1
   1119   1157     1
   1120   1127     1
   1120   1142     1
   1120   1137     1
   1120   1128     1
   1121   1134     1
   1121   1135     1
   1121   1126     1
   1121   1132     1
   1122   1123     1
   1122   1141     1
   1122   1140     1
   1122   1136     1
   1122   1134     1
   1122   1135     1
   1122   1125     1
   1123   1142     1
   1123   1128     1
   1123   1133     1
   1124   1140     1
   1124   1132     1
   1124   1139     1
   1125   1127     1
   1125   1133     1
   1126   1130     1
   1126   1127     1
   1126   1129     1
   1126   1138     1
   1126   1128     1
   1126   1133     1
   1127   1141     1
   1127   1140     1
   1127   1143     1
   1127   1132     1
   1128   1143     1
   1128   1139     1
   1130   1140     1
   1131   1140     1
   1134   1138     1
   1134   1137     1
   1135   1138     1
   1135   1137     1
   1138   1140     1
   1138   1139     1
   1140   1142     1
   1144   1151     1
   1144   1166     1
   1144   1161     1
   1144   1152     1
   1145   1158     1
   1145   1159     1
   1145   1150     1
   1145   1156     1
   1146   1147     1
   1146   1165     1
   1146   1164     1
   1146   1160     1
   1146   1158     1
   1146   1159     1
   1146   1149     1
   1147   1166     1
   1147   1152     1
   1147   1157     1
   1148   1164     1
   1148   1156     1
   1148   1163     1
   1149   1151     1
   1149   1157     1
   1150   1154     1
   1150   1151     1
   1150   1153     1
   1150   1162     1
   1150   1152     1
   1150   1157     1
   1151   1165     1
   1151   1164     1
   1151   1167     1
   1151   1156     1
   1152   1167     1
   1152   1163     1
   1154   1164     1
   1155   1164     1
   1158   1162     1
   1158   1161     1
   1159   1162     1
   1159   1161     1
   1162   1164     1
   1162   1163     1
   1164   1166     1
   1169   1175     1
   1169   1176     1
   1170   1173     1
   1170   1172     1
   1170   1174     1
   1171   1242     1
   1172   1177     1
   1172   1175     1
   1172   1176     1
   1173   1187     1
   1173   1188     1
   1173   1180     1
   1173   1182     1
   1174   1177     1
   1174   1175     1
   1174   1176     1
   1175   1178     1
   1175   1179     1
   1175   1242     1
   1176   1178     1
   1176   1179     1
   1176   1242     1
   1177   1190     1
   1177   1191     1
   1177   1183     1
   1177   1184     1
   1178   1180     1
   1178   1182     1
   1179   1187     1
   1179   1188     1
   1180   1185     1
   1180   1183     1
   1180   1184     1
   1180   1242     1
   1181   1207     1
   1181   1242     1
   1182   1185     1
   1182   1183     1
   1182   1184     1
   1182   1242     1
   1183   1186     1
   1183   1217     1
   1184   1186     1
   1184   1217     1
   1185   1200     1
   1186   1207     1
   1187   1192     1
   1187   1190     1
   1187   1191     1
   1187   1242     1
   1188   1192     1
   1188   1190     1
   1188   1191     1
   1188   1242     1
   1189   1231     1
   1189   1242     1
   1190   1193     1
   1190   1241     1
   1191   1193     1
   1191   1241     1
   1192   1224     1
   1193   1231     1
   1194   1201     1
   1194   1216     1
   1194   1211     1
   1194   1202     1
   1195   1200     1
   1195   1206     1
   1195   1208     1
   1195   1209     1
   1196   1197     1
   1196   1215     1
   1196   1214     1
   1196   1210     1
   1196   1208     1
   1196   1209     1
   1196   1199     1
   1197   1202     1
   1197   1207     1
   1197   1216     1
   1198   1213     1
   1198   1206     1
   1198   1214     1
   1199   1207     1
   1199   1201     1
   1200   1203     1
   1200   1212     1
   1200   1202     1
   1200   1207     1
   1200   1204     1
   1200   1201     1
   1201   1217     1
   1201   1206     1
   1201   1215     1
   1201   1214     1
   1202   1213     1
   1202   1217     1
   1204   1214     1
   1205   1214     1
   1208   1211     1
   1208   1212     1
   1209   1211     1
   1209   1212     1
   1212   1213     1
   1212   1214     1
   1214   1216     1
   1218   1225     1
   1218   1240     1
   1218   1235     1
   1218   1226     1
   1219   1224     1
   1219   1230     1
   1219   1232     1
   1219   1233     1
   1220   1221     1
   1220   1239     1
   1220   1238     1
   1220   1234     1
   1220   1232     1
   1220   1233     1
   1220   1223     1
   1221   1226     1
   1221   1231     1
   1221   1240     1
   1222   1237     1
   1222   1230     1
   1222   1238     1
   1223   1231     1
   1223   1225     1
   1224   1227     1
   1224   1236     1
   1224   1226     1
   1224   1231     1
   1224   1228     1
   1224   1225     1
   1225   1241     1
   1225   1230     1
   1225   1239     1
   1225   1238     1
   1226   1237     1
   1226   1241     1
   1228   1238     1
   1229   1238     1
   1232   1235     1
   1232   1236     1
   1233   1235     1
   1233   1236     1
   1236   1237     1
   1236   1238     1
   1238   1240     1
   1243   1249     1
   1243   1250     1
   1244   1247     1
   1244   1246     1
   1244   1248     1
   1245   1316     1
   1246   1251     1
   1246   1249     1
   1246   1250     1
   1247   1261     1
   1247   1262     1
   1247   1254     1
   1247   1256     1
   1248   1251     1
   1248   1249     1
   1248   1250     1
   1249   1252     1
   1249   1253     1
   1249   1316     1
   1250   1252     1
   1250   1253     1
   1250   1316     1
   1251   1264     1
   1251   1265     1
   1251   1257     1
   1251   1258     1
   1252   1254     1
   1252   1256     1
   1253   1261     1
   1253   1262     1
   1254   1316     1
   1254   1259     1
   1254   1257     1
   1254   1258     1
   1255   1316     1
   1255   1281     1
   1256   1316     1
   1256   1259     1
   1256   1257     1
   1256   1258     1
   1257   1260     1
   1257   1291     1
   1258   1260     1
   1258   1291     1
   1259   1274     1
   1260   1281     1
   1261   1316     1
   1261   1266     1
   1261   1264     1
   1261   1265     1
   1262   1316     1
   1262   1266     1
   1262   1264     1
   1262   1265     1
   1263   1316     1
   1263   1305     1
   1264   1267     1
   1264   1315     1
   1265   1267     1
   1265   1315     1
   1266   1298     1
   1267   1305     1
   1268   1275     1
   1268   1290     1
   1268   1285     1
   1268   1276     1
   1269   1282     1
   1269   1283     1
   1269   1274     1
   1269   1280     1
   1270   1271     1
   1270   1289     1
   1270   1288     1
   1270   1284     1
   1270   1282     1
   1270   1283     1
   1270   1273     1
   1271   1290     1
   1271   1276     1
   1271   1281     1
   1272   1288     1
   1272   1280     1
   1272   1287     1
   1273   1275     1
   1273   1281     1
   1274   1278     1
   1274   1275     1
   1274   1277     1
   1274   1286     1
   1274   1276     1
   1274   1281     1
   1275   1289     1
   1275   1288     1
   1275   1291     1
   1275   1280     1
   1276   1291     1
   1276   1287     1
   1278   1288     1
   1279   1288     1
   1282   1286     1
   1282   1285     1
   1283   1286     1
   1283   1285     1
   1286   1288     1
   1286   1287     1
   1288   1290     1
   1292   1299     1
   1292   1314     1
   1292   1309     1
   1292   1300     1
   1293   1306     1
   1293   1307     1
   1293   1298     1
   1293   1304     1
   1294   1295     1
   1294   1313     1
   1294   1312     1
   1294   1308     1
   1294   1306     1
   1294   1307     1
   1294   1297     1
   1295   1314     1
   1295   1300     1
   1295   1305     1
   1296   1312     1
   1296   1304     1
   1296   1311     1
   1297   1299     1
   1297   1305     1
   1298   1302     1
   1298   1299     1
   1298   1301     1
   1298   1310     1
   1298   1300     1
   1298   1305     1
   1299   1313     1
   1299   1312     1
   1299   1315     1
   1299   1304     1
   1300   1315     1
   1300   1311     1
   1302   1312     1
   1303   1312     1
   1306   1310     1
   1306   1309     1
   1307   1310     1
   1307   1309     1
   1310   1312     1
   1310   1311     1
   1312   1314     1
   1317   1323     1
   1317   1324     1
   1318   1321     1
   1318   1320     1
   1318   1322     1
   1319   1390     1
   1320   1325     1
   1320   1323     1
   1320   1324     1
   1321   1335     1
   1321   1336     1
   1321   1328     1
   1321   1330     1
   1322   1325     1
   1322   1323     1
   1322   1324     1
   1323   1326     1
   1323   1327     1
   1323   1390     1
   1324   1326     1
   1324   1327     1
   1324   1390     1
   1325   1338     1
   1325   1339     1
   1325   1331     1
   1325   1332     1
   1326   1328     1
   1326   1330     1
   1327   1335     1
   1327   1336     1
   1328   1333     1
   1328   1331     1
   1328   1332     1
   1328   1390     1
   1329   1355     1
   1329   1390     1
   1330   1333     1
   1330   1331     1
   1330   1332     1
   1330   1390     1
   1331   1334     1
   1331   1365     1
   1332   1334     1
   1332   1365     1
   1333   1348     1
   1334   1355     1
   1335   1340     1
   1335   1338     1
   1335   1339     1
   1335   1390     1
   1336   1340     1
   1336   1338     1
   1336   1339     1
   1336   1390     1
   1337   1379     1
   1337   1390     1
   1338   1341     1
   1338   1389     1
   1339   1341     1
   1339   1389     1
   1340   1372     1
   1341   1379     1
   1342   1349     1
   1342   1364     1
   1342   1359     1
   1342   1350     1
   1343   1348     1
   1343   1354     1
   1343   1356     1
   1343   1357     1
   1344   1345     1
   1344   1363     1
   1344   1362     1
   1344   1358     1
   1344   1356     1
   1344   1357     1
   1344   1347     1
   1345   1350     1
   1345   1355     1
   1345   1364     1
   1346   1361     1
   1346   1354     1
   1346   1362     1
   1347   1355     1
   1347   1349     1
   1348   1351     1
   1348   1360     1
   1348   1350     1
   1348   1355     1
   1348   1352     1
   1348   1349     1
   1349   1365     1
   1349   1354     1
   1349   1363     1
   1349   1362     1
   1350   1361     1
   1350   1365     1
   1352   1362     1
   1353   1362     1
   1356   1359     1
   1356   1360     1
   1357   1359     1
   1357   1360     1
   1360   1361     1
   1360   1362     1
   1362   1364     1
   1366   1373     1
   1366   1388     1
   1366   1383     1
   1366   1374     1
   1367   1372     1
   1367   1378     1
   1367   1380     1
   1367   1381     1
   1368   1369     1
   1368   1387     1
   1368   1386     1
   1368   1382     1
   1368   1380     1
   1368   1381     1
   1368   1371     1
   1369   1374     1
   1369   1379     1
   1369   1388     1
   1370   1385     1
   1370   1378     1
   1370   1386     1
   1371   1379     1
   1371   1373     1
   1372   1375     1
   1372   1384     1
   1372   1374     1
   1372   1379     1
   1372   1376     1
   1372   1373     1
   1373   1389     1
   1373   1378     1
   1373   1387     1
   1373   1386     1
   1374   1385     1
   1374   1389     1
   1376   1386     1
   1377   1386     1
   1380   1383     1
   1380   1384     1
   1381   1383     1
   1381   1384     1
   1384   1385     1
   1384   1386     1
   1386   1388     1
   1391   1397     1
   1391   1398     1
   1392   1395     1
   1392   1394     1
   1392   1396     1
   1393   1464     1
   1394   1399     1
   1394   1397     1
   1394   1398     1
   1395   1409     1
   1395   1410     1
   1395   1402     1
   1395   1404     1
   1396   1399     1
   1396   1397     1
   1396   1398     1
   1397   1400     1
   1397   1401     1
   1397   1464     1
   1398   1400     1
   1398   1401     1
   1398   1464     1
   1399   1412     1
   1399   1413     1
   1399   1405     1
   1399   1406     1
   1400   1402     1
   1400   1404     1
   1401   1409     1
   1401   1410     1
   1402   1464     1
   1402   1407     1
   1402   1405     1
   1402   1406     1
   1403   1464     1
   1403   1429     1
   1404   1464     1
   1404   1407     1
   1404   1405     1
   1404   1406     1
   1405   1408     1
   1405   1439     1
   1406   1408     1
   1406   1439     1
   1407   1422     1
   1408   1429     1
   1409   1464     1
   1409   1414     1
   1409   1412     1
   1409   1413     1
   1410   1464     1
   1410   1414     1
   1410   1412     1
   1410   1413     1
   1411   1464     1
   1411   1453     1
   1412   1415     1
   1412   1463     1
   1413   1415     1
   1413   1463     1
   1414   1446     1
   1415   1453     1
   1416   1423     1
   1416   1438     1
   1416   1433     1
   1416   1424     1
   1417   1430     1
   1417   1431     1
   1417   1422     1
   1417   1428     1
   1418   1419     1
   1418   1437     1
   1418   1436     1
   1418   1432     1
   1418   1430     1
   1418   1431     1
   1418   1421     1
   1419   1438     1
   1419   1424     1
   1419   1429     1
   1420   1436     1
   1420   1428     1
   1420   1435     1
   1421   1423     1
   1421   1429     1
   1422   1426     1
   1422   1423     1
   1422   1425     1
   1422   1434     1
   1422   1424     1
   1422   1429     1
   1423   1437     1
   1423   1436     1
   1423   1439     1
   1423   1428     1
   1424   1439     1
   1424   1435     1
   1426   1436     1
   1427   1436     1
   1430   1434     1
   1430   1433     1
   1431   1434     1
   1431   1433     1
   1434   1436     1
   1434   1435     1
   1436   1438     1
   1440   1447     1
   1440   1462     1
   1440   1457     1
   1440   1448     1
   1441   1454     1
   1441   1455     1
   1441   1446     1
   1441   1452     1
   1442   1443     1
   1442   1461     1
   1442   1460     1
   1442   1456     1
   1442   1454     1
   1442   1455     1
   1442   1445     1
   1443   1462     1
   1443   1448     1
   1443   1453     1
   1444   1460     1
   1444   1452     1
   1444   1459     1
   1445   1447     1
   1445   1453     1
   1446   1450     1
   1446   1447     1
   1446   1449     1
   1446   1458     1
   1446   1448     1
   1446   1453     1
   1447   1461     1
   1447   1460     1
   1447   1463     1
   1447   1452     1
   1448   1463     1
   1448   1459     1
   1450   1460     1
   1451   1460     1
   1454   1458     1
   1454   1457     1
   1455   1458     1
   1455   1457     1
   1458   1460     1
   1458   1459     1
   1460   1462     1
   1465   1471     1
   1465   1472     1
   1466   1469     1
   1466   1468     1
   1466   1470     1
   1467   1538     1
   1468   1473     1
   1468   1471     1
   1468   1472     1
   1469   1483     1
   1469   1484     1
   1469   1476     1
   1469   1478     1
   1470   1473     1
   1470   1471     1
   1470   1472     1
   1471   1474     1
   1471   1475     1
   1471   1538     1
   1472   1474     1
   1472   1475     1
   1472   1538     1
   1473   1486     1
   1473   1487     1
   1473   1479     1
   1473   1480     1
   1474   1476     1
   1474   1478     1
   1475   1483     1
   1475   1484     1
   1476   1481     1
   1476   1479     1
   1476   1480     1
   1476   1538     1
   1477   1503     1
   1477   1538     1
   1478   1481     1
   1478   1479     1
   1478   1480     1
   1478   1538     1
   1479   1482     1
   1479   1513     1
   1480   1482     1
   1480   1513     1
   1481   1496     1
   1482   1503     1
   1483   1488     1
   1483   1486     1
   1483   1487     1
   1483   1538     1
   1484   1488     1
   1484   1486     1
   1484   1487     1
   1484   1538     1
   1485   1527     1
   1485   1538     1
   1486   1489     1
   1486   1537     1
   1487   1489     1
   1487   1537     1
   1488   1520     1
   1489   1527     1
   1490   1497     1
   1490   1512     1
   1490   1507     1
   1490   1498     1
   1491   1496     1
   1491   1502     1
   1491   1504     1
   1491   1505     1
   1492   1493     1
   1492   1511     1
   1492   1510     1
   1492   1506     1
   1492   1504     1
   1492   1505     1
   1492   1495     1
   1493   1498     1
   1493   1503     1
   1493   1512     1
   1494   1509     1
   1494   1502     1
   1494   1510     1
   1495   1503     1
   1495   1497     1
   1496   1499     1
   1496   1508     1
   1496   1498     1
   1496   1503     1
   1496   1500     1
   1496   1497     1
   1497   1513     1
   1497   1502     1
   1497   1511     1
   1497   1510     1
   1498   1509     1
   1498   1513     1
   1500   1510     1
   1501   1510     1
   1504   1507     1
   1504   1508     1
   1505   1507     1
   1505   1508     1
   1508   1509     1
   1508   1510     1
   1510   1512     1
   1514   1521     1
   1514   1536     1
   1514   1531     1
   1514   1522     1
   1515   1520     1
   1515   1526     1
   1515   1528     1
   1515   1529     1
   1516   1517     1
   1516   1535     1
   1516   1534     1
   1516   1530     1
   1516   1528     1
   1516   1529     1
   1516   1519     1
   1517   1522     1
   1517   1527     1
   1517   1536     1
   1518   1533     1
   1518   1526     1
   1518   1534     1
   1519   1527     1
   1519   1521     1
   1520   1523     1
   1520   1532     1
   1520   1522     1
   1520   1527     1
   1520   1524     1
   1520   1521     1
   1521   1537     1
   1521   1526     1
   1521   1535     1
   1521   1534     1
   1522   1533     1
   1522   1537     1
   1524   1534     1
   1525   1534     1
   1528   1531     1
   1528   1532     1
   1529   1531     1
   1529   1532     1
   1532   1533     1
   1532   1534     1
   1534   1536     1

[ angles ]
;    ai     aj     ak funct         c0         c1         c2         c3
      1      2      3     1   114.2100488 537.225600
      1      7     13     1   114.2100488 537.225600
      1      8     15     1   114.2100488 537.225600
      2      1      7     1   109.6600471 523.836800
      2      1      8     1   109.6600471 523.836800
      2      3      4     1   114.2100488 537.225600
      3      4      5     1   109.6600471 523.836800
      3      4      6     1   109.6600471 523.836800
      4      5     11     1   114.2100488 537.225600
      4      6      9     1   114.2100488 537.225600
      5      4      6     1   109.6600471 523.836800
      5     11     12     1   111.0400475 529.694400
      6      9     10     1   111.0400475 529.694400
      7      1      8     1   109.6600471 523.836800
      7     13     14     1   111.0400475 529.694400
      8     15     16     1   111.0400475 529.694400
      9     10     18     1   123.2000528 564.003200
      9     10     52     1   115.1800491 558.982400
     10     52     51     1   120.6900519 530.531200
     11     12     17     1   123.2000528 564.003200
     11     12     78     1   115.1800491 558.982400
     12     78     77     1   120.6900519 530.531200
     13     14     20     1   123.2000528 564.003200
     13     14    104     1   115.1800491 558.982400
     14    104    103     1   120.6900519 530.531200
     15     16     19     1   123.2000528 564.003200
     15     16    130     1   115.1800491 558.982400
     16    130    129     1   120.6900519 530.531200
     17     12     78     1   123.0500530 620.905600
     18     10     52     1   123.0500530 620.905600
     19     16    130     1   123.0500530 620.905600
     20     14    104     1   123.0500530 620.905600
     43     44     46     1   114.2100488 537.225600
     43     45     48     1   114.2100488 537.225600
     43     50     51     1   114.2100488 537.225600
     44     43     45     1   109.6600471 523.836800
     44     43     50     1   109.6600471 523.836800
     44     46     47     1   111.0400475 529.694400
     45     43     50     1   109.6600471 523.836800
     45     48     49     1   111.0400475 529.694400
     46     47     53     1   123.2000528 564.003200
     46     47    156     1   115.1800491 558.982400
     47    156    155     1   120.6900519 530.531200
     48     49     54     1   123.2000528 564.003200
     48     49    182     1   115.1800491 558.982400
     49    182    181     1   120.6900519 530.531200
     50     51     52     1   111.6100477 551.451200
     53     47    156     1   123.0500530 620.905600
     54     49    182     1   123.0500530 620.905600
     69     70     72     1   114.2100488 537.225600
     69     71     74     1   114.2100488 537.225600
     69     76     77     1   114.2100488 537.225600
     70     69     71     1   109.6600471 523.836800
     70     69     76     1   109.6600471 523.836800
     70     72     73     1   111.0400475 529.694400
     71     69     76     1   109.6600471 523.836800
     71     74     75     1   111.0400475 529.694400
     72     73     79     1   123.2000528 564.003200
     72     73    208     1   115.1800491 558.982400
     73    208    207     1   120.6900519 530.531200
     74     75     80     1   123.2000528 564.003200
     74     75    234     1   115.1800491 558.982400
     75    234    233     1   120.6900519 530.531200
     76     77     78     1   111.6100477 551.451200
     79     73    208     1   123.0500530 620.905600
     80     75    234     1   123.0500530 620.905600
     95     96     98     1   114.2100488 537.225600
     95     97    100     1   114.2100488 537.225600
     95    102    103     1   114.2100488 537.225600
     96     95     97     1   109.6600471 523.836800
     96     95    102     1   109.6600471 523.836800
     96     98     99     1   111.0400475 529.694400
     97     95    102     1   109.6600471 523.836800
     97    100    101     1   111.0400475 529.694400
     98     99    105     1   123.2000528 564.003200
     98     99    260     1   115.1800491 558.982400
     99    260    259     1   120.6900519 530.531200
    100    101    106     1   123.2000528 564.003200
    100    101    286     1   115.1800491 558.982400
    101    286    285     1   120.6900519 530.531200
    102    103    104     1   111.6100477 551.451200
    105     99    260     1   123.0500530 620.905600
    106    101    286     1   123.0500530 620.905600
    121    122    124     1   114.2100488 537.225600
    121    123    126     1   114.2100488 537.225600
    121    128    129     1   114.2100488 537.225600
    122    121    123     1   109.6600471 523.836800
    122    121    128     1   109.6600471 523.836800
    122    124    125     1   111.0400475 529.694400
    123    121    128     1   109.6600471 523.836800
    123    126    127     1   111.0400475 529.694400
    124    125    131     1   123.2000528 564.003200
    124    125    312     1   115.1800491 558.982400
    125    312    311     1   120.6900519 530.531200
    126    127    132     1   123.2000528 564.003200
    126    127    338     1   115.1800491 558.982400
    127    338    337     1   120.6900519 530.531200
    128    129    130     1   111.6100477 551.451200
    131    125    312     1   123.0500530 620.905600
    132    127    338     1   123.0500530 620.905600
    147    148    150     1   114.2100488 537.225600
    147    149    152     1   114.2100488 537.225600
    147    154    155     1   114.2100488 537.225600
    148    147    149     1   109.6600471 523.836800
    148    147    154     1   109.6600471 523.836800
    148    150    151     1   111.0400475 529.694400
    149    147    154     1   109.6600471 523.836800
    149    152    153     1   111.0400475 529.694400
    150    151    355     1   115.1800491 558.982400
    150    151    157     1   123.2000528 564.003200
    151    355    357     1   120.6900519 530.531200
    152    153    158     1   123.2000528 564.003200
    152    153    429     1   115.1800491 558.982400
    153    429    431     1   120.6900519 530.531200
    154    155    156     1   111.6100477 551.451200
    157    151    355     1   123.0500530 620.905600
    158    153    429     1   123.0500530 620.905600
    173    174    176     1   114.2100488 537.225600
    173    175    178     1   114.2100488 537.225600
    173    180    181     1   114.2100488 537.225600
    174    173    175     1   109.6600471 523.836800
    174    173    180     1   109.6600471 523.836800
    174    176    177     1   111.0400475 529.694400
    175    173    180     1   109.6600471 523.836800
    175    178    179     1   111.0400475 529.694400
    176    177    503     1   115.1800491 558.982400
    176    177    183     1   123.2000528 564.003200
    177    503    505     1   120.6900519 530.531200
    178    179    184     1   123.2000528 564.003200
    178    179    577     1   115.1800491 558.982400
    179    577    579     1   120.6900519 530.531200
    180    181    182     1   111.6100477 551.451200
    183    177    503     1   123.0500530 620.905600
    184    179    577     1   123.0500530 620.905600
    199    200    202     1   114.2100488 537.225600
    199    201    204     1   114.2100488 537.225600
    199    206    207     1   114.2100488 537.225600
    200    199    201     1   109.6600471 523.836800
    200    199    206     1   109.6600471 523.836800
    200    202    203     1   111.0400475 529.694400
    201    199    206     1   109.6600471 523.836800
    201    204    205     1   111.0400475 529.694400
    202    203    651     1   115.1800491 558.982400
    202    203    209     1   123.2000528 564.003200
    203    651    653     1   120.6900519 530.531200
    204    205    210     1   123.2000528 564.003200
    204    205    725     1   115.1800491 558.982400
    205    725    727     1   120.6900519 530.531200
    206    207    208     1   111.6100477 551.451200
    209    203    651     1   123.0500530 620.905600
    210    205    725     1   123.0500530 620.905600
    225    226    228     1   114.2100488 537.225600
    225    227    230     1   114.2100488 537.225600
    225    232    233     1   114.2100488 537.225600
    226    225    227     1   109.6600471 523.836800
    226    225    232     1   109.6600471 523.836800
    226    228    229     1   111.0400475 529.694400
    227    225    232     1   109.6600471 523.836800
    227    230    231     1   111.0400475 529.694400
    228    229    799     1   115.1800491 558.982400
    228    229    235     1   123.2000528 564.003200
    229    799    801     1   120.6900519 530.531200
    230    231    236     1   123.2000528 564.003200
    230    231    873     1   115.1800491 558.982400
    231    873    875     1   120.6900519 530.531200
    232    233    234     1   111.6100477 551.451200
    235    229    799     1   123.0500530 620.905600
    236    231    873     1   123.0500530 620.905600
    251    252    254     1   114.2100488 537.225600
    251    253    256     1   114.2100488 537.225600
    251    258    259     1   114.2100488 537.225600
    252    251    253     1   109.6600471 523.836800
    252    251    258     1   109.6600471 523.836800
    252    254    255     1   111.0400475 529.694400
    253    251    258     1   109.6600471 523.836800
    253    256    257     1   111.0400475 529.694400
    254    255    947     1   115.1800491 558.982400
    254    255    261     1   123.2000528 564.003200
    255    947    949     1   120.6900519 530.531200
    256    257    262     1   123.2000528 564.003200
    256    257   1021     1   115.1800491 558.982400
    257   1021   1023     1   120.6900519 530.531200
    258    259    260     1   111.6100477 551.451200
    261    255    947     1   123.0500530 620.905600
    262    257   1021     1   123.0500530 620.905600
    277    278    280     1   114.2100488 537.225600
    277    279    282     1   114.2100488 537.225600
    277    284    285     1   114.2100488 537.225600
    278    277    279     1   109.6600471 523.836800
    278    277    284     1   109.6600471 523.836800
    278    280    281     1   111.0400475 529.694400
    279    277    284     1   109.6600471 523.836800
    279    282    283     1   111.0400475 529.694400
    280    281   1095     1   115.1800491 558.982400
    280    281    287     1   123.2000528 564.003200
    281   1095   1097     1   120.6900519 530.531200
    282    283    288     1   123.2000528 564.003200
    282    283   1169     1   115.1800491 558.982400
    283   1169   1171     1   120.6900519 530.531200
    284    285    286     1   111.6100477 551.451200
    287    281   1095     1   123.0500530 620.905600
    288    283   1169     1   123.0500530 620.905600
    303    304    306     1   114.2100488 537.225600
    303    305    308     1   114.2100488 537.225600
    303    310    311     1   114.2100488 537.225600
    304    303    305     1   109.6600471 523.836800
    304    303    310     1   109.6600471 523.836800
    304    306    307     1   111.0400475 529.694400
    305    303    310     1   109.6600471 523.836800
    305    308    309     1   111.0400475 529.694400
    306    307   1243     1   115.1800491 558.982400
    306    307    313     1   123.2000528 564.003200
    307   1243   1245     1   120.6900519 530.531200
    308    309    314     1   123.2000528 564.003200
    308    309   1317     1   115.1800491 558.982400
    309   1317   1319     1   120.6900519 530.531200
    310    311    312     1   111.6100477 551.451200
    313    307   1243     1   123.0500530 620.905600
    314    309   1317     1   123.0500530 620.905600
    329    330    332     1   114.2100488 537.225600
    329    331    334     1   114.2100488 537.225600
    329    336    337     1   114.2100488 537.225600
    330    329    331     1   109.6600471 523.836800
    330    329    336     1   109.6600471 523.836800
    330    332    333     1   111.0400475 529.694400
    331    329    336     1   109.6600471 523.836800
    331    334    335     1   111.0400475 529.694400
    332    333   1391     1   115.1800491 558.982400
    332    333    339     1   123.2000528 564.003200
    333   1391   1393     1   120.6900519 530.531200
    334    335   1465     1   115.1800491 558.982400
    334    335    340     1   123.2000528 564.003200
    335   1465   1467     1   120.6900519 530.531200
    336    337    338     1   111.6100477 551.451200
    339    333   1391     1   123.0500530 620.905600
    340    335   1465     1   123.0500530 620.905600
    355    357    359     1   111.6100477 551.451200
    357    359    363     1   114.2100488 537.225600
    359    363    364     1   109.6600471 523.836800
    359    363    365     1   109.6600471 523.836800
    363    364    375     1   114.2100488 537.225600
    363    365    367     1   114.2100488 537.225600
    364    363    365     1   109.6600471 523.836800
    364    375    378     1   111.0400475 529.694400
    365    367    371     1   111.0400475 529.694400
    367    371    372     1   123.2000528 564.003200
    367    371    403     1   112.2600482 538.062400
    371    403    384     1   118.5150508 540.957728
    372    371    403     1   118.8300510 581.576000
    375    378    379     1   123.2000528 564.003200
    375    378    427     1   112.2600482 538.062400
    378    427    408     1   118.5150508 540.957728
    379    378    427     1   118.8300510 581.576000
    380    381    383     1   111.5100476 526.347200
    380    381    401     1   110.1900474 564.840000
    380    391    396     1   110.1900474 564.840000
    380    398    385     1   112.4800480 524.673600
    381    380    391     1   111.5100476 526.347200
    381    380    398     1   107.9700462 569.024000
    381    383    384     1   111.5100476 526.347200
    381    383    390     1   110.1900474 564.840000
    383    381    401     1   110.1900474 564.840000
    383    384    385     1   111.5100476 526.347200
    383    384    403     1   111.0400475 552.288000
    384    383    390     1   110.1900474 564.840000
    384    385    389     1   110.1900474 564.840000
    384    385    398     1   107.9700462 569.024000
    385    384    403     1   111.0400475 552.288000
    389    385    398     1   109.3800466 607.516800
    391    380    398     1   107.9700462 569.024000
    404    405    407     1   111.5100476 526.347200
    404    405    425     1   110.1900474 564.840000
    404    415    420     1   110.1900474 564.840000
    404    422    409     1   112.4800480 524.673600
    405    404    415     1   111.5100476 526.347200
    405    404    422     1   107.9700462 569.024000
    405    407    408     1   111.5100476 526.347200
    405    407    414     1   110.1900474 564.840000
    407    405    425     1   110.1900474 564.840000
    407    408    409     1   111.5100476 526.347200
    407    408    427     1   111.0400475 552.288000
    408    407    414     1   110.1900474 564.840000
    408    409    413     1   110.1900474 564.840000
    408    409    422     1   107.9700462 569.024000
    409    408    427     1   111.0400475 552.288000
    413    409    422     1   109.3800466 607.516800
    415    404    422     1   107.9700462 569.024000
    429    431    433     1   111.6100477 551.451200
    431    433    437     1   114.2100488 537.225600
    433    437    438     1   109.6600471 523.836800
    433    437    439     1   109.6600471 523.836800
    437    438    449     1   114.2100488 537.225600
    437    439    441     1   114.2100488 537.225600
    438    449    452     1   111.0400475 529.694400
    438    437    439     1   109.6600471 523.836800
    439    441    445     1   111.0400475 529.694400
    441    445    446     1   123.2000528 564.003200
    441    445    477     1   112.2600482 538.062400
    445    477    458     1   118.5150508 540.957728
    446    445    477     1   118.8300510 581.576000
    449    452    453     1   123.2000528 564.003200
    449    452    501     1   112.2600482 538.062400
    452    501    482     1   118.5150508 540.957728
    453    452    501     1   118.8300510 581.576000
    454    455    457     1   111.5100476 526.347200
    454    455    475     1   110.1900474 564.840000
    454    465    470     1   110.1900474 564.840000
    454    472    459     1   112.4800480 524.673600
    455    457    458     1   111.5100476 526.347200
    455    457    464     1   110.1900474 564.840000
    455    454    465     1   111.5100476 526.347200
    455    454    472     1   107.9700462 569.024000
    457    458    459     1   111.5100476 526.347200
    457    458    477     1   111.0400475 552.288000
    457    455    475     1   110.1900474 564.840000
    458    459    463     1   110.1900474 564.840000
    458    459    472     1   107.9700462 569.024000
    458    457    464     1   110.1900474 564.840000
    459    458    477     1   111.0400475 552.288000
    463    459    472     1   109.3800466 607.516800
    465    454    472     1   107.9700462 569.024000
    478    479    481     1   111.5100476 526.347200
    478    479    499     1   110.1900474 564.840000
    478    489    494     1   110.1900474 564.840000
    478    496    483     1   112.4800480 524.673600
    479    481    482     1   111.5100476 526.347200
    479    481    488     1   110.1900474 564.840000
    479    478    489     1   111.5100476 526.347200
    479    478    496     1   107.9700462 569.024000
    481    482    483     1   111.5100476 526.347200
    481    482    501     1   111.0400475 552.288000
    481    479    499     1   110.1900474 564.840000
    482    483    487     1   110.1900474 564.840000
    482    483    496     1   107.9700462 569.024000
    482    481    488     1   110.1900474 564.840000
    483    482    501     1   111.0400475 552.288000
    487    483    496     1   109.3800466 607.516800
    489    478    496     1   107.9700462 569.024000
    503    505    507     1   111.6100477 551.451200
    505    507    511     1   114.2100488 537.225600
    507    511    512     1   109.6600471 523.836800
    507    511    513     1   109.6600471 523.836800
    511    512    523     1   114.2100488 537.225600
    511    513    515     1   114.2100488 537.225600
    512    511    513     1   109.6600471 523.836800
    512    523    526     1   111.0400475 529.694400
    513    515    519     1   111.0400475 529.694400
    515    519    520     1   123.2000528 564.003200
    515    519    551     1   112.2600482 538.062400
    519    551    532     1   118.5150508 540.957728
    520    519    551     1   118.8300510 581.576000
    523    526    527     1   123.2000528 564.003200
    523    526    575     1   112.2600482 538.062400
    526    575    556     1   118.5150508 540.957728
    527    526    575     1   118.8300510 581.576000
    528    529    531     1   111.5100476 526.347200
    528    529    549     1   110.1900474 564.840000
    528    539    544     1   110.1900474 564.840000
    528    546    533     1   112.4800480 524.673600
    529    528    539     1   111.5100476 526.347200
    529    528    546     1   107.9700462 569.024000
    529    531    532     1   111.5100476 526.347200
    529    531    538     1   110.1900474 564.840000
    531    529    549     1   110.1900474 564.840000
    531    532    533     1   111.5100476 526.347200
    531    532    551     1   111.0400475 552.288000
    532    531    538     1   110.1900474 564.840000
    532    533    537     1   110.1900474 564.840000
    532    533    546     1   107.9700462 569.024000
    533    532    551     1   111.0400475 552.288000
    537    533    546     1   109.3800466 607.516800
    539    528    546     1   107.9700462 569.024000
    552    553    555     1   111.5100476 526.347200
    552    553    573     1   110.1900474 564.840000
    552    563    568     1   110.1900474 564.840000
    552    570    557     1   112.4800480 524.673600
    553    552    563     1   111.5100476 526.347200
    553    552    570     1   107.9700462 569.024000
    553    555    556     1   111.5100476 526.347200
    553    555    562     1   110.1900474 564.840000
    555    553    573     1   110.1900474 564.840000
    555    556    557     1   111.5100476 526.347200
    555    556    575     1   111.0400475 552.288000
    556    555    562     1   110.1900474 564.840000
    556    557    561     1   110.1900474 564.840000
    556    557    570     1   107.9700462 569.024000
    557    556    575     1   111.0400475 552.288000
    561    557    570     1   109.3800466 607.516800
    563    552    570     1   107.9700462 569.024000
    577    579    581     1   111.6100477 551.451200
    579    581    585     1   114.2100488 537.225600
    581    585    586     1   109.6600471 523.836800
    581    585    587     1   109.6600471 523.836800
    585    586    597     1   114.2100488 537.225600
    585    587    589     1   114.2100488 537.225600
    586    597    600     1   111.0400475 529.694400
    586    585    587     1   109.6600471 523.836800
    587    589    593     1   111.0400475 529.694400
    589    593    594     1   123.2000528 564.003200
    589    593    625     1   112.2600482 538.062400
    593    625    606     1   118.5150508 540.957728
    594    593    625     1   118.8300510 581.576000
    597    600    601     1   123.2000528 564.003200
    597    600    649     1   112.2600482 538.062400
    600    649    630     1   118.5150508 540.957728
    601    600    649     1   118.8300510 581.576000
    602    603    605     1   111.5100476 526.347200
    602    603    623     1   110.1900474 564.840000
    602    613    618     1   110.1900474 564.840000
    602    620    607     1   112.4800480 524.673600
    603    605    606     1   111.5100476 526.347200
    603    605    612     1   110.1900474 564.840000
    603    602    613     1   111.5100476 526.347200
    603    602    620     1   107.9700462 569.024000
    605    606    607     1   111.5100476 526.347200
    605    606    625     1   111.0400475 552.288000
    605    603    623     1   110.1900474 564.840000
    606    607    611     1   110.1900474 564.840000
    606    607    620     1   107.9700462 569.024000
    606    605    612     1   110.1900474 564.840000
    607    606    625     1   111.0400475 552.288000
    611    607    620     1   109.3800466 607.516800
    613    602    620     1   107.9700462 569.024000
    626    627    629     1   111.5100476 526.347200
    626    627    647     1   110.1900474 564.840000
    626    637    642     1   110.1900474 564.840000
    626    644    631     1   112.4800480 524.673600
    627    629    630     1   111.5100476 526.347200
    627    629    636     1   110.1900474 564.840000
    627    626    637     1   111.5100476 526.347200
    627    626    644     1   107.9700462 569.024000
    629    630    631     1   111.5100476 526.347200
    629    630    649     1   111.0400475 552.288000
    629    627    647     1   110.1900474 564.840000
    630    631    635     1   110.1900474 564.840000
    630    631    644     1   107.9700462 569.024000
    630    629    636     1   110.1900474 564.840000
    631    630    649     1   111.0400475 552.288000
    635    631    644     1   109.3800466 607.516800
    637    626    644     1   107.9700462 569.024000
    651    653    655     1   111.6100477 551.451200
    653    655    659     1   114.2100488 537.225600
    655    659    660     1   109.6600471 523.836800
    655    659    661     1   109.6600471 523.836800
    659    660    671     1   114.2100488 537.225600
    659    661    663     1   114.2100488 537.225600
    660    659    661     1   109.6600471 523.836800
    660    671    674     1   111.0400475 529.694400
    661    663    667     1   111.0400475 529.694400
    663    667    668     1   123.2000528 564.003200
    663    667    699     1   112.2600482 538.062400
    667    699    680     1   118.5150508 540.957728
    668    667    699     1   118.8300510 581.576000
    671    674    675     1   123.2000528 564.003200
    671    674    723     1   112.2600482 538.062400
    674    723    704     1   118.5150508 540.957728
    675    674    723     1   118.8300510 581.576000
    676    677    679     1   111.5100476 526.347200
    676    677    697     1   110.1900474 564.840000
    676    687    692     1   110.1900474 564.840000
    676    694    681     1   112.4800480 524.673600
    677    676    687     1   111.5100476 526.347200
    677    676    694     1   107.9700462 569.024000
    677    679    680     1   111.5100476 526.347200
    677    679    686     1   110.1900474 564.840000
    679    677    697     1   110.1900474 564.840000
    679    680    681     1   111.5100476 526.347200
    679    680    699     1   111.0400475 552.288000
    680    679    686     1   110.1900474 564.840000
    680    681    685     1   110.1900474 564.840000
    680    681    694     1   107.9700462 569.024000
    681    680    699     1   111.0400475 552.288000
    685    681    694     1   109.3800466 607.516800
    687    676    694     1   107.9700462 569.024000
    700    701    703     1   111.5100476 526.347200
    700    701    721     1   110.1900474 564.840000
    700    711    716     1   110.1900474 564.840000
    700    718    705     1   112.4800480 524.673600
    701    700    711     1   111.5100476 526.347200
    701    700    718     1   107.9700462 569.024000
    701    703    704     1   111.5100476 526.347200
    701    703    710     1   110.1900474 564.840000
    703    701    721     1   110.1900474 564.840000
    703    704    705     1   111.5100476 526.347200
    703    704    723     1   111.0400475 552.288000
    704    703    710     1   110.1900474 564.840000
    704    705    709     1   110.1900474 564.840000
    704    705    718     1   107.9700462 569.024000
    705    704    723     1   111.0400475 552.288000
    709    705    718     1   109.3800466 607.516800
    711    700    718     1   107.9700462 569.024000
    725    727    729     1   111.6100477 551.451200
    727    729    733     1   114.2100488 537.225600
    729    733    734     1   109.6600471 523.836800
    729    733    735     1   109.6600471 523.836800
    733    734    745     1   114.2100488 537.225600
    733    735    737     1   114.2100488 537.225600
    734    745    748     1   111.0400475 529.694400
    734    733    735     1   109.6600471 523.836800
    735    737    741     1   111.0400475 529.694400
    737    741    742     1   123.2000528 564.003200
    737    741    773     1   112.2600482 538.062400
    741    773    754     1   118.5150508 540.957728
    742    741    773     1   118.8300510 581.576000
    745    748    749     1   123.2000528 564.003200
    745    748    797     1   112.2600482 538.062400
    748    797    778     1   118.5150508 540.957728
    749    748    797     1   118.8300510 581.576000
    750    751    753     1   111.5100476 526.347200
    750    751    771     1   110.1900474 564.840000
    750    761    766     1   110.1900474 564.840000
    750    768    755     1   112.4800480 524.673600
    751    753    754     1   111.5100476 526.347200
    751    753    760     1   110.1900474 564.840000
    751    750    761     1   111.5100476 526.347200
    751    750    768     1   107.9700462 569.024000
    753    754    755     1   111.5100476 526.347200
    753    754    773     1   111.0400475 552.288000
    753    751    771     1   110.1900474 564.840000
    754    755    759     1   110.1900474 564.840000
    754    755    768     1   107.9700462 569.024000
    754    753    760     1   110.1900474 564.840000
    755    754    773     1   111.0400475 552.288000
    759    755    768     1   109.3800466 607.516800
    761    750    768     1   107.9700462 569.024000
    774    775    777     1   111.5100476 526.347200
    774    775    795     1   110.1900474 564.840000
    774    785    790     1   110.1900474 564.840000
    774    792    779     1   112.4800480 524.673600
    775    777    778     1   111.5100476 526.347200
    775    777    784     1   110.1900474 564.840000
    775    774    785     1   111.5100476 526.347200
    775    774    792     1   107.9700462 569.024000
    777    778    779     1   111.5100476 526.347200
    777    778    797     1   111.0400475 552.288000
    777    775    795     1   110.1900474 564.840000
    778    779    783     1   110.1900474 564.840000
    778    779    792     1   107.9700462 569.024000
    778    777    784     1   110.1900474 564.840000
    779    778    797     1   111.0400475 552.288000
    783    779    792     1   109.3800466 607.516800
    785    774    792     1   107.9700462 569.024000
    799    801    803     1   111.6100477 551.451200
    801    803    807     1   114.2100488 537.225600
    803    807    808     1   109.6600471 523.836800
    803    807    809     1   109.6600471 523.836800
    807    808    819     1   114.2100488 537.225600
    807    809    811     1   114.2100488 537.225600
    808    807    809     1   109.6600471 523.836800
    808    819    822     1   111.0400475 529.694400
    809    811    815     1   111.0400475 529.694400
    811    815    816     1   123.2000528 564.003200
    811    815    847     1   112.2600482 538.062400
    815    847    828     1   118.5150508 540.957728
    816    815    847     1   118.8300510 581.576000
    819    822    823     1   123.2000528 564.003200
    819    822    871     1   112.2600482 538.062400
    822    871    852     1   118.5150508 540.957728
    823    822    871     1   118.8300510 581.576000
    824    825    827     1   111.5100476 526.347200
    824    825    845     1   110.1900474 564.840000
    824    835    840     1   110.1900474 564.840000
    824    842    829     1   112.4800480 524.673600
    825    824    835     1   111.5100476 526.347200
    825    824    842     1   107.9700462 569.024000
    825    827    828     1   111.5100476 526.347200
    825    827    834     1   110.1900474 564.840000
    827    825    845     1   110.1900474 564.840000
    827    828    829     1   111.5100476 526.347200
    827    828    847     1   111.0400475 552.288000
    828    827    834     1   110.1900474 564.840000
    828    829    833     1   110.1900474 564.840000
    828    829    842     1   107.9700462 569.024000
    829    828    847     1   111.0400475 552.288000
    833    829    842     1   109.3800466 607.516800
    835    824    842     1   107.9700462 569.024000
    848    849    851     1   111.5100476 526.347200
    848    849    869     1   110.1900474 564.840000
    848    859    864     1   110.1900474 564.840000
    848    866    853     1   112.4800480 524.673600
    849    848    859     1   111.5100476 526.347200
    849    848    866     1   107.9700462 569.024000
    849    851    852     1   111.5100476 526.347200
    849    851    858     1   110.1900474 564.840000
    851    849    869     1   110.1900474 564.840000
    851    852    853     1   111.5100476 526.347200
    851    852    871     1   111.0400475 552.288000
    852    851    858     1   110.1900474 564.840000
    852    853    857     1   110.1900474 564.840000
    852    853    866     1   107.9700462 569.024000
    853    852    871     1   111.0400475 552.288000
    857    853    866     1   109.3800466 607.516800
    859    848    866     1   107.9700462 569.024000
    873    875    877     1   111.6100477 551.451200
    875    877    881     1   114.2100488 537.225600
    877    881    882     1   109.6600471 523.836800
    877    881    883     1   109.6600471 523.836800
    881    882    893     1   114.2100488 537.225600
    881    883    885     1   114.2100488 537.225600
    882    893    896     1   111.0400475 529.694400
    882    881    883     1   109.6600471 523.836800
    883    885    889     1   111.0400475 529.694400
    885    889    890     1   123.2000528 564.003200
    885    889    921     1   112.2600482 538.062400
    889    921    902     1   118.5150508 540.957728
    890    889    921     1   118.8300510 581.576000
    893    896    897     1   123.2000528 564.003200
    893    896    945     1   112.2600482 538.062400
    896    945    926     1   118.5150508 540.957728
    897    896    945     1   118.8300510 581.576000
    898    899    901     1   111.5100476 526.347200
    898    899    919     1   110.1900474 564.840000
    898    909    914     1   110.1900474 564.840000
    898    916    903     1   112.4800480 524.673600
    899    901    902     1   111.5100476 526.347200
    899    901    908     1   110.1900474 564.840000
    899    898    909     1   111.5100476 526.347200
    899    898    916     1   107.9700462 569.024000
    901    902    903     1   111.5100476 526.347200
    901    902    921     1   111.0400475 552.288000
    901    899    919     1   110.1900474 564.840000
    902    903    907     1   110.1900474 564.840000
    902    903    916     1   107.9700462 569.024000
    902    901    908     1   110.1900474 564.840000
    903    902    921     1   111.0400475 552.288000
    907    903    916     1   109.3800466 607.516800
    909    898    916     1   107.9700462 569.024000
    922    923    925     1   111.5100476 526.347200
    922    923    943     1   110.1900474 564.840000
    922    933    938     1   110.1900474 564.840000
    922    940    927     1   112.4800480 524.673600
    923    925    926     1   111.5100476 526.347200
    923    925    932     1   110.1900474 564.840000
    923    922    933     1   111.5100476 526.347200
    923    922    940     1   107.9700462 569.024000
    925    926    927     1   111.5100476 526.347200
    925    926    945     1   111.0400475 552.288000
    925    923    943     1   110.1900474 564.840000
    926    927    931     1   110.1900474 564.840000
    926    927    940     1   107.9700462 569.024000
    926    925    932     1   110.1900474 564.840000
    927    926    945     1   111.0400475 552.288000
    931    927    940     1   109.3800466 607.516800
    933    922    940     1   107.9700462 569.024000
    947    949    951     1   111.6100477 551.451200
    949    951    955     1   114.2100488 537.225600
    951    955    956     1   109.6600471 523.836800
    951    955    957     1   109.6600471 523.836800
    955    956    967     1   114.2100488 537.225600
    955    957    959     1   114.2100488 537.225600
    956    955    957     1   109.6600471 523.836800
    956    967    970     1   111.0400475 529.694400
    957    959    963     1   111.0400475 529.694400
    959    963    964     1   123.2000528 564.003200
    959    963    995     1   112.2600482 538.062400
    963    995    976     1   118.5150508 540.957728
    964    963    995     1   118.8300510 581.576000
    967    970    971     1   123.2000528 564.003200
    967    970   1019     1   112.2600482 538.062400
    970   1019   1000     1   118.5150508 540.957728
    971    970   1019     1   118.8300510 581.576000
    972    973    975     1   111.5100476 526.347200
    972    973    993     1   110.1900474 564.840000
    972    983    988     1   110.1900474 564.840000
    972    990    977     1   112.4800480 524.673600
    973    972    983     1   111.5100476 526.347200
    973    972    990     1   107.9700462 569.024000
    973    975    976     1   111.5100476 526.347200
    973    975    982     1   110.1900474 564.840000
    975    973    993     1   110.1900474 564.840000
    975    976    977     1   111.5100476 526.347200
    975    976    995     1   111.0400475 552.288000
    976    975    982     1   110.1900474 564.840000
    976    977    981     1   110.1900474 564.840000
    976    977    990     1   107.9700462 569.024000
    977    976    995     1   111.0400475 552.288000
    981    977    990     1   109.3800466 607.516800
    983    972    990     1   107.9700462 569.024000
    996    997    999     1   111.5100476 526.347200
    996    997   1017     1   110.1900474 564.840000
    996   1007   1012     1   110.1900474 564.840000
    996   1014   1001     1   112.4800480 524.673600
    997    996   1007     1   111.5100476 526.347200
    997    996   1014     1   107.9700462 569.024000
    997    999   1000     1   111.5100476 526.347200
    997    999   1006     1   110.1900474 564.840000
    999    997   1017     1   110.1900474 564.840000
    999   1000   1001     1   111.5100476 526.347200
    999   1000   1019     1   111.0400475 552.288000
   1000    999   1006     1   110.1900474 564.840000
   1000   1001   1005     1   110.1900474 564.840000
   1000   1001   1014     1   107.9700462 569.024000
   1001   1000   1019     1   111.0400475 552.288000
   1005   1001   1014     1   109.3800466 607.516800
   1007    996   1014     1   107.9700462 569.024000
   1021   1023   1025     1   111.6100477 551.451200
   1023   1025   1029     1   114.2100488 537.225600
   1025   1029   1030     1   109.6600471 523.836800
   1025   1029   1031     1   109.6600471 523.836800
   1029   1030   1041     1   114.2100488 537.225600
   1029   1031   1033     1   114.2100488 537.225600
   1030   1041   1044     1   111.0400475 529.694400
   1030   1029   1031     1   109.6600471 523.836800
   1031   1033   1037     1   111.0400475 529.694400
   1033   1037   1038     1   123.2000528 564.003200
   1033   1037   1069     1   112.2600482 538.062400
   1037   1069   1050     1   118.5150508 540.957728
   1038   1037   1069     1   118.8300510 581.576000
   1041   1044   1045     1   123.2000528 564.003200
   1041   1044   1093     1   112.2600482 538.062400
   1044   1093   1074     1   118.5150508 540.957728
   1045   1044   1093     1   118.8300510 581.576000
   1046   1047   1049     1   111.5100476 526.347200
   1046   1047   1067     1   110.1900474 564.840000
   1046   1057   1062     1   110.1900474 564.840000
   1046   1064   1051     1   112.4800480 524.673600
   1047   1049   1050     1   111.5100476 526.347200
   1047   1049   1056     1   110.1900474 564.840000
   1047   1046   1057     1   111.5100476 526.347200
   1047   1046   1064     1   107.9700462 569.024000
   1049   1050   1051     1   111.5100476 526.347200
   1049   1050   1069     1   111.0400475 552.288000
   1049   1047   1067     1   110.1900474 564.840000
   1050   1051   1055     1   110.1900474 564.840000
   1050   1051   1064     1   107.9700462 569.024000
   1050   1049   1056     1   110.1900474 564.840000
   1051   1050   1069     1   111.0400475 552.288000
   1055   1051   1064     1   109.3800466 607.516800
   1057   1046   1064     1   107.9700462 569.024000
   1070   1071   1073     1   111.5100476 526.347200
   1070   1071   1091     1   110.1900474 564.840000
   1070   1081   1086     1   110.1900474 564.840000
   1070   1088   1075     1   112.4800480 524.673600
   1071   1073   1074     1   111.5100476 526.347200
   1071   1073   1080     1   110.1900474 564.840000
   1071   1070   1081     1   111.5100476 526.347200
   1071   1070   1088     1   107.9700462 569.024000
   1073   1074   1075     1   111.5100476 526.347200
   1073   1074   1093     1   111.0400475 552.288000
   1073   1071   1091     1   110.1900474 564.840000
   1074   1075   1079     1   110.1900474 564.840000
   1074   1075   1088     1   107.9700462 569.024000
   1074   1073   1080     1   110.1900474 564.840000
   1075   1074   1093     1   111.0400475 552.288000
   1079   1075   1088     1   109.3800466 607.516800
   1081   1070   1088     1   107.9700462 569.024000
   1095   1097   1099     1   111.6100477 551.451200
   1097   1099   1103     1   114.2100488 537.225600
   1099   1103   1104     1   109.6600471 523.836800
   1099   1103   1105     1   109.6600471 523.836800
   1103   1104   1115     1   114.2100488 537.225600
   1103   1105   1107     1   114.2100488 537.225600
   1104   1103   1105     1   109.6600471 523.836800
   1104   1115   1118     1   111.0400475 529.694400
   1105   1107   1111     1   111.0400475 529.694400
   1107   1111   1112     1   123.2000528 564.003200
   1107   1111   1143     1   112.2600482 538.062400
   1111   1143   1124     1   118.5150508 540.957728
   1112   1111   1143     1   118.8300510 581.576000
   1115   1118   1119     1   123.2000528 564.003200
   1115   1118   1167     1   112.2600482 538.062400
   1118   1167   1148     1   118.5150508 540.957728
   1119   1118   1167     1   118.8300510 581.576000
   1120   1121   1123     1   111.5100476 526.347200
   1120   1121   1141     1   110.1900474 564.840000
   1120   1131   1136     1   110.1900474 564.840000
   1120   1138   1125     1   112.4800480 524.673600
   1121   1120   1131     1   111.5100476 526.347200
   1121   1120   1138     1   107.9700462 569.024000
   1121   1123   1124     1   111.5100476 526.347200
   1121   1123   1130     1   110.1900474 564.840000
   1123   1121   1141     1   110.1900474 564.840000
   1123   1124   1125     1   111.5100476 526.347200
   1123   1124   1143     1   111.0400475 552.288000
   1124   1123   1130     1   110.1900474 564.840000
   1124   1125   1129     1   110.1900474 564.840000
   1124   1125   1138     1   107.9700462 569.024000
   1125   1124   1143     1   111.0400475 552.288000
   1129   1125   1138     1   109.3800466 607.516800
   1131   1120   1138     1   107.9700462 569.024000
   1144   1145   1147     1   111.5100476 526.347200
   1144   1145   1165     1   110.1900474 564.840000
   1144   1155   1160     1   110.1900474 564.840000
   1144   1162   1149     1   112.4800480 524.673600
   1145   1144   1155     1   111.5100476 526.347200
   1145   1144   1162     1   107.9700462 569.024000
   1145   1147   1148     1   111.5100476 526.347200
   1145   1147   1154     1   110.1900474 564.840000
   1147   1145   1165     1   110.1900474 564.840000
   1147   1148   1149     1   111.5100476 526.347200
   1147   1148   1167     1   111.0400475 552.288000
   1148   1147   1154     1   110.1900474 564.840000
   1148   1149   1153     1   110.1900474 564.840000
   1148   1149   1162     1   107.9700462 569.024000
   1149   1148   1167     1   111.0400475 552.288000
   1153   1149   1162     1   109.3800466 607.516800
   1155   1144   1162     1   107.9700462 569.024000
   1169   1171   1173     1   111.6100477 551.451200
   1171   1173   1177     1   114.2100488 537.225600
   1173   1177   1178     1   109.6600471 523.836800
   1173   1177   1179     1   109.6600471 523.836800
   1177   1178   1189     1   114.2100488 537.225600
   1177   1179   1181     1   114.2100488 537.225600
   1178   1189   1192     1   111.0400475 529.694400
   1178   1177   1179     1   109.6600471 523.836800
   1179   1181   1185     1   111.0400475 529.694400
   1181   1185   1186     1   123.2000528 564.003200
   1181   1185   1217     1   112.2600482 538.062400
   1185   1217   1198     1   118.5150508 540.957728
   1186   1185   1217     1   118.8300510 581.576000
   1189   1192   1193     1   123.2000528 564.003200
   1189   1192   1241     1   112.2600482 538.062400
   1192   1241   1222     1   118.5150508 540.957728
   1193   1192   1241     1   118.8300510 581.576000
   1194   1195   1197     1   111.5100476 526.347200
   1194   1195   1215     1   110.1900474 564.840000
   1194   1205   1210     1   110.1900474 564.840000
   1194   1212   1199     1   112.4800480 524.673600
   1195   1197   1198     1   111.5100476 526.347200
   1195   1197   1204     1   110.1900474 564.840000
   1195   1194   1205     1   111.5100476 526.347200
   1195   1194   1212     1   107.9700462 569.024000
   1197   1198   1199     1   111.5100476 526.347200
   1197   1198   1217     1   111.0400475 552.288000
   1197   1195   1215     1   110.1900474 564.840000
   1198   1199   1203     1   110.1900474 564.840000
   1198   1199   1212     1   107.9700462 569.024000
   1198   1197   1204     1   110.1900474 564.840000
   1199   1198   1217     1   111.0400475 552.288000
   1203   1199   1212     1   109.3800466 607.516800
   1205   1194   1212     1   107.9700462 569.024000
   1218   1219   1221     1   111.5100476 526.347200
   1218   1219   1239     1   110.1900474 564.840000
   1218   1229   1234     1   110.1900474 564.840000
   1218   1236   1223     1   112.4800480 524.673600
   1219   1221   1222     1   111.5100476 526.347200
   1219   1221   1228     1   110.1900474 564.840000
   1219   1218   1229     1   111.5100476 526.347200
   1219   1218   1236     1   107.9700462 569.024000
   1221   1222   1223     1   111.5100476 526.347200
   1221   1222   1241     1   111.0400475 552.288000
   1221   1219   1239     1   110.1900474 564.840000
   1222   1223   1227     1   110.1900474 564.840000
   1222   1223   1236     1   107.9700462 569.024000
   1222   1221   1228     1   110.1900474 564.840000
   1223   1222   1241     1   111.0400475 552.288000
   1227   1223   1236     1   109.3800466 607.516800
   1229   1218   1236     1   107.9700462 569.024000
   1243   1245   1247     1   111.6100477 551.451200
   1245   1247   1251     1   114.2100488 537.225600
   1247   1251   1252     1   109.6600471 523.836800
   1247   1251   1253     1   109.6600471 523.836800
   1251   1252   1263     1   114.2100488 537.225600
   1251   1253   1255     1   114.2100488 537.225600
   1252   1251   1253     1   109.6600471 523.836800
   1252   1263   1266     1   111.0400475 529.694400
   1253   1255   1259     1   111.0400475 529.694400
   1255   1259   1260     1   123.2000528 564.003200
   1255   1259   1291     1   112.2600482 538.062400
   1259   1291   1272     1   118.5150508 540.957728
   1260   1259   1291     1   118.8300510 581.576000
   1263   1266   1267     1   123.2000528 564.003200
   1263   1266   1315     1   112.2600482 538.062400
   1266   1315   1296     1   118.5150508 540.957728
   1267   1266   1315     1   118.8300510 581.576000
   1268   1269   1271     1   111.5100476 526.347200
   1268   1269   1289     1   110.1900474 564.840000
   1268   1279   1284     1   110.1900474 564.840000
   1268   1286   1273     1   112.4800480 524.673600
   1269   1268   1279     1   111.5100476 526.347200
   1269   1268   1286     1   107.9700462 569.024000
   1269   1271   1272     1   111.5100476 526.347200
   1269   1271   1278     1   110.1900474 564.840000
   1271   1269   1289     1   110.1900474 564.840000
   1271   1272   1273     1   111.5100476 526.347200
   1271   1272   1291     1   111.0400475 552.288000
   1272   1271   1278     1   110.1900474 564.840000
   1272   1273   1277     1   110.1900474 564.840000
   1272   1273   1286     1   107.9700462 569.024000
   1273   1272   1291     1   111.0400475 552.288000
   1277   1273   1286     1   109.3800466 607.516800
   1279   1268   1286     1   107.9700462 569.024000
   1292   1293   1295     1   111.5100476 526.347200
   1292   1293   1313     1   110.1900474 564.840000
   1292   1303   1308     1   110.1900474 564.840000
   1292   1310   1297     1   112.4800480 524.673600
   1293   1292   1303     1   111.5100476 526.347200
   1293   1292   1310     1   107.9700462 569.024000
   1293   1295   1296     1   111.5100476 526.347200
   1293   1295   1302     1   110.1900474 564.840000
   1295   1293   1313     1   110.1900474 564.840000
   1295   1296   1297     1   111.5100476 526.347200
   1295   1296   1315     1   111.0400475 552.288000
   1296   1295   1302     1   110.1900474 564.840000
   1296   1297   1301     1   110.1900474 564.840000
   1296   1297   1310     1   107.9700462 569.024000
   1297   1296   1315     1   111.0400475 552.288000
   1301   1297   1310     1   109.3800466 607.516800
   1303   1292   1310     1   107.9700462 569.024000
   1317   1319   1321     1   111.6100477 551.451200
   1319   1321   1325     1   114.2100488 537.225600
   1321   1325   1326     1   109.6600471 523.836800
   1321   1325   1327     1   109.6600471 523.836800
   1325   1326   1337     1   114.2100488 537.225600
   1325   1327   1329     1   114.2100488 537.225600
   1326   1337   1340     1   111.0400475 529.694400
   1326   1325   1327     1   109.6600471 523.836800
   1327   1329   1333     1   111.0400475 529.694400
   1329   1333   1334     1   123.2000528 564.003200
   1329   1333   1365     1   112.2600482 538.062400
   1333   1365   1346     1   118.5150508 540.957728
   1334   1333   1365     1   118.8300510 581.576000
   1337   1340   1341     1   123.2000528 564.003200
   1337   1340   1389     1   112.2600482 538.062400
   1340   1389   1370     1   118.5150508 540.957728
   1341   1340   1389     1   118.8300510 581.576000
   1342   1343   1345     1   111.5100476 526.347200
   1342   1343   1363     1   110.1900474 564.840000
   1342   1353   1358     1   110.1900474 564.840000
   1342   1360   1347     1   112.4800480 524.673600
   1343   1345   1346     1   111.5100476 526.347200
   1343   1345   1352     1   110.1900474 564.840000
   1343   1342   1353     1   111.5100476 526.347200
   1343   1342   1360     1   107.9700462 569.024000
   1345   1346   1347     1   111.5100476 526.347200
   1345   1346   1365     1   111.0400475 552.288000
   1345   1343   1363     1   110.1900474 564.840000
   1346   1347   1351     1   110.1900474 564.840000
   1346   1347   1360     1   107.9700462 569.024000
   1346   1345   1352     1   110.1900474 564.840000
   1347   1346   1365     1   111.0400475 552.288000
   1351   1347   1360     1   109.3800466 607.516800
   1353   1342   1360     1   107.9700462 569.024000
   1366   1367   1369     1   111.5100476 526.347200
   1366   1367   1387     1   110.1900474 564.840000
   1366   1377   1382     1   110.1900474 564.840000
   1366   1384   1371     1   112.4800480 524.673600
   1367   1369   1370     1   111.5100476 526.347200
   1367   1369   1376     1   110.1900474 564.840000
   1367   1366   1377     1   111.5100476 526.347200
   1367   1366   1384     1   107.9700462 569.024000
   1369   1370   1371     1   111.5100476 526.347200
   1369   1370   1389     1   111.0400475 552.288000
   1369   1367   1387     1   110.1900474 564.840000
   1370   1371   1375     1   110.1900474 564.840000
   1370   1371   1384     1   107.9700462 569.024000
   1370   1369   1376     1   110.1900474 564.840000
   1371   1370   1389     1   111.0400475 552.288000
   1375   1371   1384     1   109.3800466 607.516800
   1377   1366   1384     1   107.9700462 569.024000
   1391   1393   1395     1   111.6100477 551.451200
   1393   1395   1399     1   114.2100488 537.225600
   1395   1399   1400     1   109.6600471 523.836800
   1395   1399   1401     1   109.6600471 523.836800
   1399   1400   1411     1   114.2100488 537.225600
   1399   1401   1403     1   114.2100488 537.225600
   1400   1399   1401     1   109.6600471 523.836800
   1400   1411   1414     1   111.0400475 529.694400
   1401   1403   1407     1   111.0400475 529.694400
   1403   1407   1408     1   123.2000528 564.003200
   1403   1407   1439     1   112.2600482 538.062400
   1407   1439   1420     1   118.5150508 540.957728
   1408   1407   1439     1   118.8300510 581.576000
   1411   1414   1415     1   123.2000528 564.003200
   1411   1414   1463     1   112.2600482 538.062400
   1414   1463   1444     1   118.5150508 540.957728
   1415   1414   1463     1   118.8300510 581.576000
   1416   1417   1419     1   111.5100476 526.347200
   1416   1417   1437     1   110.1900474 564.840000
   1416   1427   1432     1   110.1900474 564.840000
   1416   1434   1421     1   112.4800480 524.673600
   1417   1416   1427     1   111.5100476 526.347200
   1417   1416   1434     1   107.9700462 569.024000
   1417   1419   1420     1   111.5100476 526.347200
   1417   1419   1426     1   110.1900474 564.840000
   1419   1417   1437     1   110.1900474 564.840000
   1419   1420   1421     1   111.5100476 526.347200
   1419   1420   1439     1   111.0400475 552.288000
   1420   1419   1426     1   110.1900474 564.840000
   1420   1421   1425     1   110.1900474 564.840000
   1420   1421   1434     1   107.9700462 569.024000
   1421   1420   1439     1   111.0400475 552.288000
   1425   1421   1434     1   109.3800466 607.516800
   1427   1416   1434     1   107.9700462 569.024000
   1440   1441   1443     1   111.5100476 526.347200
   1440   1441   1461     1   110.1900474 564.840000
   1440   1451   1456     1   110.1900474 564.840000
   1440   1458   1445     1   112.4800480 524.673600
   1441   1440   1451     1   111.5100476 526.347200
   1441   1440   1458     1   107.9700462 569.024000
   1441   1443   1444     1   111.5100476 526.347200
   1441   1443   1450     1   110.1900474 564.840000
   1443   1441   1461     1   110.1900474 564.840000
   1443   1444   1445     1   111.5100476 526.347200
   1443   1444   1463     1   111.0400475 552.288000
   1444   1443   1450     1   110.1900474 564.840000
   1444   1445   1449     1   110.1900474 564.840000
   1444   1445   1458     1   107.9700462 569.024000
   1445   1444   1463     1   111.0400475 552.288000
   1449   1445   1458     1   109.3800466 607.516800
   1451   1440   1458     1   107.9700462 569.024000
   1465   1467   1469     1   111.6100477 551.451200
   1467   1469   1473     1   114.2100488 537.225600
   1469   1473   1474     1   109.6600471 523.836800
   1469   1473   1475     1   109.6600471 523.836800
   1473   1474   1485     1   114.2100488 537.225600
   1473   1475   1477     1   114.2100488 537.225600
   1474   1485   1488     1   111.0400475 529.694400
   1474   1473   1475     1   109.6600471 523.836800
   1475   1477   1481     1   111.0400475 529.694400
   1477   1481   1482     1   123.2000528 564.003200
   1477   1481   1513     1   112.2600482 538.062400
   1481   1513   1494     1   118.5150508 540.957728
   1482   1481   1513     1   118.8300510 581.576000
   1485   1488   1489     1   123.2000528 564.003200
   1485   1488   1537     1   112.2600482 538.062400
   1488   1537   1518     1   118.5150508 540.957728
   1489   1488   1537     1   118.8300510 581.576000
   1490   1491   1493     1   111.5100476 526.347200
   1490   1491   1511     1   110.1900474 564.840000
   1490   1501   1506     1   110.1900474 564.840000
   1490   1508   1495     1   112.4800480 524.673600
   1491   1493   1494     1   111.5100476 526.347200
   1491   1493   1500     1   110.1900474 564.840000
   1491   1490   1501     1   111.5100476 526.347200
   1491   1490   1508     1   107.9700462 569.024000
   1493   1494   1495     1   111.5100476 526.347200
   1493   1494   1513     1   111.0400475 552.288000
   1493   1491   1511     1   110.1900474 564.840000
   1494   1495   1499     1   110.1900474 564.840000
   1494   1495   1508     1   107.9700462 569.024000
   1494   1493   1500     1   110.1900474 564.840000
   1495   1494   1513     1   111.0400475 552.288000
   1499   1495   1508     1   109.3800466 607.516800
   1501   1490   1508     1   107.9700462 569.024000
   1514   1515   1517     1   111.5100476 526.347200
   1514   1515   1535     1   110.1900474 564.840000
   1514   1525   1530     1   110.1900474 564.840000
   1514   1532   1519     1   112.4800480 524.673600
   1515   1517   1518     1   111.5100476 526.347200
   1515   1517   1524     1   110.1900474 564.840000
   1515   1514   1525     1   111.5100476 526.347200
   1515   1514   1532     1   107.9700462 569.024000
   1517   1518   1519     1   111.5100476 526.347200
   1517   1518   1537     1   111.0400475 552.288000
   1517   1515   1535     1   110.1900474 564.840000
   1518   1519   1523     1   110.1900474 564.840000
   1518   1519   1532     1   107.9700462 569.024000
   1518   1517   1524     1   110.1900474 564.840000
   1519   1518   1537     1   111.0400475 552.288000
   1523   1519   1532     1   109.3800466 607.516800
   1525   1514   1532     1   107.9700462 569.024000
      1      2     21     1   108.0100461 406.684800
      1      2     22     1   108.0100461 406.684800
      1      7     29     1   108.0100461 406.684800
      1      7     30     1   108.0100461 406.684800
      1      8     31     1   108.0100461 406.684800
      1      8     32     1   108.0100461 406.684800
      2      1     41     1   110.1100470 384.091200
      2      3     23     1   110.5600475 386.601600
      2      3     24     1   110.5600475 386.601600
      3      2     21     1   110.5600475 386.601600
      3      2     22     1   110.5600475 386.601600
      3      4     42     1   110.1100470 384.091200
      4      3     23     1   108.0100461 406.684800
      4      3     24     1   108.0100461 406.684800
      4      5     25     1   108.0100461 406.684800
      4      5     26     1   108.0100461 406.684800
      4      6     27     1   108.0100461 406.684800
      4      6     28     1   108.0100461 406.684800
      5      4     42     1   110.1100470 384.091200
      5     11     35     1   109.8000471 387.438400
      5     11     36     1   109.8000471 387.438400
      6      4     42     1   110.1100470 384.091200
      6      9     33     1   109.8000471 387.438400
      6      9     34     1   109.8000471 387.438400
      7      1     41     1   110.1100470 384.091200
      7     13     37     1   109.8000471 387.438400
      7     13     38     1   109.8000471 387.438400
      8      1     41     1   110.1100470 384.091200
      8     15     39     1   109.8000471 387.438400
      8     15     40     1   109.8000471 387.438400
      9      6     27     1   110.5600475 386.601600
      9      6     28     1   110.5600475 386.601600
     10      9     33     1   108.7700466 392.459200
     10      9     34     1   108.7700466 392.459200
     10     52     67     1   117.5500507 404.174400
     11      5     25     1   110.5600475 386.601600
     11      5     26     1   110.5600475 386.601600
     12     11     35     1   108.7700466 392.459200
     12     11     36     1   108.7700466 392.459200
     12     78     93     1   117.5500507 404.174400
     13      7     29     1   110.5600475 386.601600
     13      7     30     1   110.5600475 386.601600
     14     13     37     1   108.7700466 392.459200
     14     13     38     1   108.7700466 392.459200
     14    104    119     1   117.5500507 404.174400
     15      8     31     1   110.5600475 386.601600
     15      8     32     1   110.5600475 386.601600
     16     15     39     1   108.7700466 392.459200
     16     15     40     1   108.7700466 392.459200
     16    130    145     1   117.5500507 404.174400
     21      2     22     1   109.7500473 328.025600
     23      3     24     1   109.7500473 328.025600
     25      5     26     1   109.7500473 328.025600
     27      6     28     1   109.7500473 328.025600
     29      7     30     1   109.7500473 328.025600
     31      8     32     1   109.7500473 328.025600
     33      9     34     1   107.5800459 329.699200
     35     11     36     1   107.5800459 329.699200
     37     13     38     1   107.5800459 329.699200
     39     15     40     1   107.5800459 329.699200
     43     44     55     1   108.0100461 406.684800
     43     44     56     1   108.0100461 406.684800
     43     45     57     1   108.0100461 406.684800
     43     45     58     1   108.0100461 406.684800
     43     50     63     1   108.0100461 406.684800
     43     50     64     1   108.0100461 406.684800
     44     43     68     1   110.1100470 384.091200
     44     46     59     1   109.8000471 387.438400
     44     46     60     1   109.8000471 387.438400
     45     43     68     1   110.1100470 384.091200
     45     48     61     1   109.8000471 387.438400
     45     48     62     1   109.8000471 387.438400
     46     44     55     1   110.5600475 386.601600
     46     44     56     1   110.5600475 386.601600
     47     46     59     1   108.7700466 392.459200
     47     46     60     1   108.7700466 392.459200
     47    156    171     1   117.5500507 404.174400
     48     45     57     1   110.5600475 386.601600
     48     45     58     1   110.5600475 386.601600
     49     48     61     1   108.7700466 392.459200
     49     48     62     1   108.7700466 392.459200
     49    182    197     1   117.5500507 404.174400
     50     43     68     1   110.1100470 384.091200
     50     51     65     1   109.5600471 388.275200
     50     51     66     1   109.5600471 388.275200
     51     50     63     1   110.5600475 386.601600
     51     50     64     1   110.5600475 386.601600
     51     52     67     1   117.6800502 383.254400
     52     51     65     1   108.8800464 416.726400
     52     51     66     1   108.8800464 416.726400
     55     44     56     1   109.7500473 328.025600
     57     45     58     1   109.7500473 328.025600
     59     46     60     1   107.5800459 329.699200
     61     48     62     1   107.5800459 329.699200
     63     50     64     1   109.7500473 328.025600
     65     51     66     1   108.4600466 328.025600
     69     70     81     1   108.0100461 406.684800
     69     70     82     1   108.0100461 406.684800
     69     71     83     1   108.0100461 406.684800
     69     71     84     1   108.0100461 406.684800
     69     76     89     1   108.0100461 406.684800
     69     76     90     1   108.0100461 406.684800
     70     69     94     1   110.1100470 384.091200
     70     72     85     1   109.8000471 387.438400
     70     72     86     1   109.8000471 387.438400
     71     69     94     1   110.1100470 384.091200
     71     74     87     1   109.8000471 387.438400
     71     74     88     1   109.8000471 387.438400
     72     70     81     1   110.5600475 386.601600
     72     70     82     1   110.5600475 386.601600
     73     72     85     1   108.7700466 392.459200
     73     72     86     1   108.7700466 392.459200
     73    208    223     1   117.5500507 404.174400
     74     71     83     1   110.5600475 386.601600
     74     71     84     1   110.5600475 386.601600
     75     74     87     1   108.7700466 392.459200
     75     74     88     1   108.7700466 392.459200
     75    234    249     1   117.5500507 404.174400
     76     69     94     1   110.1100470 384.091200
     76     77     91     1   109.5600471 388.275200
     76     77     92     1   109.5600471 388.275200
     77     76     89     1   110.5600475 386.601600
     77     76     90     1   110.5600475 386.601600
     77     78     93     1   117.6800502 383.254400
     78     77     91     1   108.8800464 416.726400
     78     77     92     1   108.8800464 416.726400
     81     70     82     1   109.7500473 328.025600
     83     71     84     1   109.7500473 328.025600
     85     72     86     1   107.5800459 329.699200
     87     74     88     1   107.5800459 329.699200
     89     76     90     1   109.7500473 328.025600
     91     77     92     1   108.4600466 328.025600
     95     96    107     1   108.0100461 406.684800
     95     96    108     1   108.0100461 406.684800
     95     97    109     1   108.0100461 406.684800
     95     97    110     1   108.0100461 406.684800
     95    102    115     1   108.0100461 406.684800
     95    102    116     1   108.0100461 406.684800
     96     95    120     1   110.1100470 384.091200
     96     98    111     1   109.8000471 387.438400
     96     98    112     1   109.8000471 387.438400
     97     95    120     1   110.1100470 384.091200
     97    100    113     1   109.8000471 387.438400
     97    100    114     1   109.8000471 387.438400
     98     96    107     1   110.5600475 386.601600
     98     96    108     1   110.5600475 386.601600
     99     98    111     1   108.7700466 392.459200
     99     98    112     1   108.7700466 392.459200
     99    260    275     1   117.5500507 404.174400
    100     97    109     1   110.5600475 386.601600
    100     97    110     1   110.5600475 386.601600
    101    100    113     1   108.7700466 392.459200
    101    100    114     1   108.7700466 392.459200
    101    286    301     1   117.5500507 404.174400
    102     95    120     1   110.1100470 384.091200
    102    103    117     1   109.5600471 388.275200
    102    103    118     1   109.5600471 388.275200
    103    102    115     1   110.5600475 386.601600
    103    102    116     1   110.5600475 386.601600
    103    104    119     1   117.6800502 383.254400
    104    103    117     1   108.8800464 416.726400
    104    103    118     1   108.8800464 416.726400
    107     96    108     1   109.7500473 328.025600
    109     97    110     1   109.7500473 328.025600
    111     98    112     1   107.5800459 329.699200
    113    100    114     1   107.5800459 329.699200
    115    102    116     1   109.7500473 328.025600
    117    103    118     1   108.4600466 328.025600
    121    122    133     1   108.0100461 406.684800
    121    122    134     1   108.0100461 406.684800
    121    123    135     1   108.0100461 406.684800
    121    123    136     1   108.0100461 406.684800
    121    128    141     1   108.0100461 406.684800
    121    128    142     1   108.0100461 406.684800
    122    121    146     1   110.1100470 384.091200
    122    124    137     1   109.8000471 387.438400
    122    124    138     1   109.8000471 387.438400
    123    121    146     1   110.1100470 384.091200
    123    126    139     1   109.8000471 387.438400
    123    126    140     1   109.8000471 387.438400
    124    122    133     1   110.5600475 386.601600
    124    122    134     1   110.5600475 386.601600
    125    124    137     1   108.7700466 392.459200
    125    124    138     1   108.7700466 392.459200
    125    312    327     1   117.5500507 404.174400
    126    123    135     1   110.5600475 386.601600
    126    123    136     1   110.5600475 386.601600
    127    126    139     1   108.7700466 392.459200
    127    126    140     1   108.7700466 392.459200
    127    338    353     1   117.5500507 404.174400
    128    121    146     1   110.1100470 384.091200
    128    129    143     1   109.5600471 388.275200
    128    129    144     1   109.5600471 388.275200
    129    128    141     1   110.5600475 386.601600
    129    128    142     1   110.5600475 386.601600
    129    130    145     1   117.6800502 383.254400
    130    129    143     1   108.8800464 416.726400
    130    129    144     1   108.8800464 416.726400
    133    122    134     1   109.7500473 328.025600
    135    123    136     1   109.7500473 328.025600
    137    124    138     1   107.5800459 329.699200
    139    126    140     1   107.5800459 329.699200
    141    128    142     1   109.7500473 328.025600
    143    129    144     1   108.4600466 328.025600
    147    148    159     1   108.0100461 406.684800
    147    148    160     1   108.0100461 406.684800
    147    149    161     1   108.0100461 406.684800
    147    149    162     1   108.0100461 406.684800
    147    154    167     1   108.0100461 406.684800
    147    154    168     1   108.0100461 406.684800
    148    147    172     1   110.1100470 384.091200
    148    150    163     1   109.8000471 387.438400
    148    150    164     1   109.8000471 387.438400
    149    147    172     1   110.1100470 384.091200
    149    152    165     1   109.8000471 387.438400
    149    152    166     1   109.8000471 387.438400
    150    148    159     1   110.5600475 386.601600
    150    148    160     1   110.5600475 386.601600
    151    150    163     1   108.7700466 392.459200
    151    150    164     1   108.7700466 392.459200
    151    355    356     1   117.5500507 404.174400
    152    149    161     1   110.5600475 386.601600
    152    149    162     1   110.5600475 386.601600
    153    152    165     1   108.7700466 392.459200
    153    152    166     1   108.7700466 392.459200
    153    429    430     1   117.5500507 404.174400
    154    147    172     1   110.1100470 384.091200
    154    155    169     1   109.5600471 388.275200
    154    155    170     1   109.5600471 388.275200
    155    154    167     1   110.5600475 386.601600
    155    154    168     1   110.5600475 386.601600
    155    156    171     1   117.6800502 383.254400
    156    155    169     1   108.8800464 416.726400
    156    155    170     1   108.8800464 416.726400
    159    148    160     1   109.7500473 328.025600
    161    149    162     1   109.7500473 328.025600
    163    150    164     1   107.5800459 329.699200
    165    152    166     1   107.5800459 329.699200
    167    154    168     1   109.7500473 328.025600
    169    155    170     1   108.4600466 328.025600
    173    174    185     1   108.0100461 406.684800
    173    174    186     1   108.0100461 406.684800
    173    175    187     1   108.0100461 406.684800
    173    175    188     1   108.0100461 406.684800
    173    180    193     1   108.0100461 406.684800
    173    180    194     1   108.0100461 406.684800
    174    173    198     1   110.1100470 384.091200
    174    176    189     1   109.8000471 387.438400
    174    176    190     1   109.8000471 387.438400
    175    173    198     1   110.1100470 384.091200
    175    178    191     1   109.8000471 387.438400
    175    178    192     1   109.8000471 387.438400
    176    174    185     1   110.5600475 386.601600
    176    174    186     1   110.5600475 386.601600
    177    176    189     1   108.7700466 392.459200
    177    176    190     1   108.7700466 392.459200
    177    503    504     1   117.5500507 404.174400
    178    175    187     1   110.5600475 386.601600
    178    175    188     1   110.5600475 386.601600
    179    178    191     1   108.7700466 392.459200
    179    178    192     1   108.7700466 392.459200
    179    577    578     1   117.5500507 404.174400
    180    173    198     1   110.1100470 384.091200
    180    181    195     1   109.5600471 388.275200
    180    181    196     1   109.5600471 388.275200
    181    180    193     1   110.5600475 386.601600
    181    180    194     1   110.5600475 386.601600
    181    182    197     1   117.6800502 383.254400
    182    181    195     1   108.8800464 416.726400
    182    181    196     1   108.8800464 416.726400
    185    174    186     1   109.7500473 328.025600
    187    175    188     1   109.7500473 328.025600
    189    176    190     1   107.5800459 329.699200
    191    178    192     1   107.5800459 329.699200
    193    180    194     1   109.7500473 328.025600
    195    181    196     1   108.4600466 328.025600
    199    200    211     1   108.0100461 406.684800
    199    200    212     1   108.0100461 406.684800
    199    201    213     1   108.0100461 406.684800
    199    201    214     1   108.0100461 406.684800
    199    206    219     1   108.0100461 406.684800
    199    206    220     1   108.0100461 406.684800
    200    199    224     1   110.1100470 384.091200
    200    202    215     1   109.8000471 387.438400
    200    202    216     1   109.8000471 387.438400
    201    199    224     1   110.1100470 384.091200
    201    204    217     1   109.8000471 387.438400
    201    204    218     1   109.8000471 387.438400
    202    200    211     1   110.5600475 386.601600
    202    200    212     1   110.5600475 386.601600
    203    202    215     1   108.7700466 392.459200
    203    202    216     1   108.7700466 392.459200
    203    651    652     1   117.5500507 404.174400
    204    201    213     1   110.5600475 386.601600
    204    201    214     1   110.5600475 386.601600
    205    204    217     1   108.7700466 392.459200
    205    204    218     1   108.7700466 392.459200
    205    725    726     1   117.5500507 404.174400
    206    199    224     1   110.1100470 384.091200
    206    207    221     1   109.5600471 388.275200
    206    207    222     1   109.5600471 388.275200
    207    206    219     1   110.5600475 386.601600
    207    206    220     1   110.5600475 386.601600
    207    208    223     1   117.6800502 383.254400
    208    207    221     1   108.8800464 416.726400
    208    207    222     1   108.8800464 416.726400
    211    200    212     1   109.7500473 328.025600
    213    201    214     1   109.7500473 328.025600
    215    202    216     1   107.5800459 329.699200
    217    204    218     1   107.5800459 329.699200
    219    206    220     1   109.7500473 328.025600
    221    207    222     1   108.4600466 328.025600
    225    226    237     1   108.0100461 406.684800
    225    226    238     1   108.0100461 406.684800
    225    227    239     1   108.0100461 406.684800
    225    227    240     1   108.0100461 406.684800
    225    232    245     1   108.0100461 406.684800
    225    232    246     1   108.0100461 406.684800
    226    225    250     1   110.1100470 384.091200
    226    228    241     1   109.8000471 387.438400
    226    228    242     1   109.8000471 387.438400
    227    225    250     1   110.1100470 384.091200
    227    230    243     1   109.8000471 387.438400
    227    230    244     1   109.8000471 387.438400
    228    226    237     1   110.5600475 386.601600
    228    226    238     1   110.5600475 386.601600
    229    228    241     1   108.7700466 392.459200
    229    228    242     1   108.7700466 392.459200
    229    799    800     1   117.5500507 404.174400
    230    227    239     1   110.5600475 386.601600
    230    227    240     1   110.5600475 386.601600
    231    230    243     1   108.7700466 392.459200
    231    230    244     1   108.7700466 392.459200
    231    873    874     1   117.5500507 404.174400
    232    225    250     1   110.1100470 384.091200
    232    233    247     1   109.5600471 388.275200
    232    233    248     1   109.5600471 388.275200
    233    232    245     1   110.5600475 386.601600
    233    232    246     1   110.5600475 386.601600
    233    234    249     1   117.6800502 383.254400
    234    233    247     1   108.8800464 416.726400
    234    233    248     1   108.8800464 416.726400
    237    226    238     1   109.7500473 328.025600
    239    227    240     1   109.7500473 328.025600
    241    228    242     1   107.5800459 329.699200
    243    230    244     1   107.5800459 329.699200
    245    232    246     1   109.7500473 328.025600
    247    233    248     1   108.4600466 328.025600
    251    252    263     1   108.0100461 406.684800
    251    252    264     1   108.0100461 406.684800
    251    253    265     1   108.0100461 406.684800
    251    253    266     1   108.0100461 406.684800
    251    258    271     1   108.0100461 406.684800
    251    258    272     1   108.0100461 406.684800
    252    251    276     1   110.1100470 384.091200
    252    254    267     1   109.8000471 387.438400
    252    254    268     1   109.8000471 387.438400
    253    251    276     1   110.1100470 384.091200
    253    256    269     1   109.8000471 387.438400
    253    256    270     1   109.8000471 387.438400
    254    252    263     1   110.5600475 386.601600
    254    252    264     1   110.5600475 386.601600
    255    254    267     1   108.7700466 392.459200
    255    254    268     1   108.7700466 392.459200
    255    947    948     1   117.5500507 404.174400
    256    253    265     1   110.5600475 386.601600
    256    253    266     1   110.5600475 386.601600
    257    256    269     1   108.7700466 392.459200
    257    256    270     1   108.7700466 392.459200
    257   1021   1022     1   117.5500507 404.174400
    258    251    276     1   110.1100470 384.091200
    258    259    273     1   109.5600471 388.275200
    258    259    274     1   109.5600471 388.275200
    259    258    271     1   110.5600475 386.601600
    259    258    272     1   110.5600475 386.601600
    259    260    275     1   117.6800502 383.254400
    260    259    273     1   108.8800464 416.726400
    260    259    274     1   108.8800464 416.726400
    263    252    264     1   109.7500473 328.025600
    265    253    266     1   109.7500473 328.025600
    267    254    268     1   107.5800459 329.699200
    269    256    270     1   107.5800459 329.699200
    271    258    272     1   109.7500473 328.025600
    273    259    274     1   108.4600466 328.025600
    277    278    289     1   108.0100461 406.684800
    277    278    290     1   108.0100461 406.684800
    277    279    291     1   108.0100461 406.684800
    277    279    292     1   108.0100461 406.684800
    277    284    297     1   108.0100461 406.684800
    277    284    298     1   108.0100461 406.684800
    278    277    302     1   110.1100470 384.091200
    278    280    293     1   109.8000471 387.438400
    278    280    294     1   109.8000471 387.438400
    279    277    302     1   110.1100470 384.091200
    279    282    295     1   109.8000471 387.438400
    279    282    296     1   109.8000471 387.438400
    280    278    289     1   110.5600475 386.601600
    280    278    290     1   110.5600475 386.601600
    281    280    293     1   108.7700466 392.459200
    281    280    294     1   108.7700466 392.459200
    281   1095   1096     1   117.5500507 404.174400
    282    279    291     1   110.5600475 386.601600
    282    279    292     1   110.5600475 386.601600
    283    282    295     1   108.7700466 392.459200
    283    282    296     1   108.7700466 392.459200
    283   1169   1170     1   117.5500507 404.174400
    284    277    302     1   110.1100470 384.091200
    284    285    299     1   109.5600471 388.275200
    284    285    300     1   109.5600471 388.275200
    285    284    297     1   110.5600475 386.601600
    285    284    298     1   110.5600475 386.601600
    285    286    301     1   117.6800502 383.254400
    286    285    299     1   108.8800464 416.726400
    286    285    300     1   108.8800464 416.726400
    289    278    290     1   109.7500473 328.025600
    291    279    292     1   109.7500473 328.025600
    293    280    294     1   107.5800459 329.699200
    295    282    296     1   107.5800459 329.699200
    297    284    298     1   109.7500473 328.025600
    299    285    300     1   108.4600466 328.025600
    303    304    315     1   108.0100461 406.684800
    303    304    316     1   108.0100461 406.684800
    303    305    317     1   108.0100461 406.684800
    303    305    318     1   108.0100461 406.684800
    303    310    323     1   108.0100461 406.684800
    303    310    324     1   108.0100461 406.684800
    304    303    328     1   110.1100470 384.091200
    304    306    319     1   109.8000471 387.438400
    304    306    320     1   109.8000471 387.438400
    305    303    328     1   110.1100470 384.091200
    305    308    321     1   109.8000471 387.438400
    305    308    322     1   109.8000471 387.438400
    306    304    315     1   110.5600475 386.601600
    306    304    316     1   110.5600475 386.601600
    307    306    319     1   108.7700466 392.459200
    307    306    320     1   108.7700466 392.459200
    307   1243   1244     1   117.5500507 404.174400
    308    305    317     1   110.5600475 386.601600
    308    305    318     1   110.5600475 386.601600
    309    308    321     1   108.7700466 392.459200
    309    308    322     1   108.7700466 392.459200
    309   1317   1318     1   117.5500507 404.174400
    310    303    328     1   110.1100470 384.091200
    310    311    325     1   109.5600471 388.275200
    310    311    326     1   109.5600471 388.275200
    311    310    323     1   110.5600475 386.601600
    311    310    324     1   110.5600475 386.601600
    311    312    327     1   117.6800502 383.254400
    312    311    325     1   108.8800464 416.726400
    312    311    326     1   108.8800464 416.726400
    315    304    316     1   109.7500473 328.025600
    317    305    318     1   109.7500473 328.025600
    319    306    320     1   107.5800459 329.699200
    321    308    322     1   107.5800459 329.699200
    323    310    324     1   109.7500473 328.025600
    325    311    326     1   108.4600466 328.025600
    329    330    341     1   108.0100461 406.684800
    329    330    342     1   108.0100461 406.684800
    329    331    343     1   108.0100461 406.684800
    329    331    344     1   108.0100461 406.684800
    329    336    349     1   108.0100461 406.684800
    329    336    350     1   108.0100461 406.684800
    330    329    354     1   110.1100470 384.091200
    330    332    345     1   109.8000471 387.438400
    330    332    346     1   109.8000471 387.438400
    331    329    354     1   110.1100470 384.091200
    331    334    347     1   109.8000471 387.438400
    331    334    348     1   109.8000471 387.438400
    332    330    341     1   110.5600475 386.601600
    332    330    342     1   110.5600475 386.601600
    333    332    345     1   108.7700466 392.459200
    333    332    346     1   108.7700466 392.459200
    333   1391   1392     1   117.5500507 404.174400
    334    331    343     1   110.5600475 386.601600
    334    331    344     1   110.5600475 386.601600
    335    334    347     1   108.7700466 392.459200
    335    334    348     1   108.7700466 392.459200
    335   1465   1466     1   117.5500507 404.174400
    336    329    354     1   110.1100470 384.091200
    336    337    351     1   109.5600471 388.275200
    336    337    352     1   109.5600471 388.275200
    337    336    349     1   110.5600475 386.601600
    337    336    350     1   110.5600475 386.601600
    337    338    353     1   117.6800502 383.254400
    338    337    351     1   108.8800464 416.726400
    338    337    352     1   108.8800464 416.726400
    341    330    342     1   109.7500473 328.025600
    343    331    344     1   109.7500473 328.025600
    345    332    346     1   107.5800459 329.699200
    347    334    348     1   107.5800459 329.699200
    349    336    350     1   109.7500473 328.025600
    351    337    352     1   108.4600466 328.025600
    355    357    358     1   108.8800464 416.726400
    355    357    360     1   108.8800464 416.726400
    356    355    357     1   117.6800502 383.254400
    357    359    361     1   109.5600471 388.275200
    357    359    362     1   109.5600471 388.275200
    358    357    359     1   109.5600471 388.275200
    358    357    360     1   108.4600466 328.025600
    359    357    360     1   109.5600471 388.275200
    359    363    428     1   110.1100470 384.091200
    361    359    363     1   107.9000462 406.684800
    361    359    362     1   108.4600466 328.025600
    362    359    363     1   107.9000462 406.684800
    363    364    373     1   107.9000462 406.684800
    363    364    374     1   107.9000462 406.684800
    363    365    366     1   107.9000462 406.684800
    363    365    368     1   107.9000462 406.684800
    364    363    428     1   110.1100470 384.091200
    364    375    376     1   109.8000471 387.438400
    364    375    377     1   109.8000471 387.438400
    365    363    428     1   110.1100470 384.091200
    365    367    369     1   109.8000471 387.438400
    365    367    370     1   109.8000471 387.438400
    366    365    367     1   109.5600471 388.275200
    366    365    368     1   108.4600466 328.025600
    367    365    368     1   109.5600471 388.275200
    369    367    371     1   108.7700466 392.459200
    369    367    370     1   107.5800459 329.699200
    370    367    371     1   108.7700466 392.459200
    371    403    393     1   119.3800509 410.868800
    373    364    375     1   109.5600471 388.275200
    373    364    374     1   108.4600466 328.025600
    374    364    375     1   109.5600471 388.275200
    376    375    378     1   108.7700466 392.459200
    376    375    377     1   107.5800459 329.699200
    377    375    378     1   108.7700466 392.459200
    378    427    417     1   119.3800509 410.868800
    380    381    400     1   109.5600471 388.275200
    380    391    394     1   109.5600471 388.275200
    380    391    395     1   109.5600471 388.275200
    381    380    382     1   109.5600471 388.275200
    381    383    387     1   109.5600471 388.275200
    381    401    402     1   107.2600461 396.643200
    382    380    391     1   109.5600471 388.275200
    382    380    398     1   109.7800468 425.094400
    383    381    400     1   109.5600471 388.275200
    383    384    386     1   109.5600471 388.275200
    383    390    392     1   107.2600461 396.643200
    384    383    387     1   109.5600471 388.275200
    384    385    388     1   110.2200475 386.601600
    384    403    393     1   109.2900470 396.643200
    385    384    386     1   109.5600471 388.275200
    385    389    399     1   107.2600461 396.643200
    386    384    403     1   109.8800469 414.216000
    387    383    390     1   110.2600474 425.931200
    388    385    389     1   109.4300470 427.604800
    388    385    398     1   109.5800467 425.931200
    391    396    397     1   107.2600461 396.643200
    394    391    396     1   110.2600474 425.931200
    394    391    395     1   108.4600466 328.025600
    395    391    396     1   110.2600474 425.931200
    400    381    401     1   110.2600474 425.931200
    404    405    424     1   109.5600471 388.275200
    404    415    418     1   109.5600471 388.275200
    404    415    419     1   109.5600471 388.275200
    405    404    406     1   109.5600471 388.275200
    405    407    411     1   109.5600471 388.275200
    405    425    426     1   107.2600461 396.643200
    406    404    415     1   109.5600471 388.275200
    406    404    422     1   109.7800468 425.094400
    407    405    424     1   109.5600471 388.275200
    407    408    410     1   109.5600471 388.275200
    407    414    416     1   107.2600461 396.643200
    408    407    411     1   109.5600471 388.275200
    408    409    412     1   110.2200475 386.601600
    408    427    417     1   109.2900470 396.643200
    409    408    410     1   109.5600471 388.275200
    409    413    423     1   107.2600461 396.643200
    410    408    427     1   109.8800469 414.216000
    411    407    414     1   110.2600474 425.931200
    412    409    413     1   109.4300470 427.604800
    412    409    422     1   109.5800467 425.931200
    415    420    421     1   107.2600461 396.643200
    418    415    420     1   110.2600474 425.931200
    418    415    419     1   108.4600466 328.025600
    419    415    420     1   110.2600474 425.931200
    424    405    425     1   110.2600474 425.931200
    429    431    432     1   108.8800464 416.726400
    429    431    434     1   108.8800464 416.726400
    430    429    431     1   117.6800502 383.254400
    431    433    435     1   109.5600471 388.275200
    431    433    436     1   109.5600471 388.275200
    432    431    433     1   109.5600471 388.275200
    432    431    434     1   108.4600466 328.025600
    433    437    502     1   110.1100470 384.091200
    433    431    434     1   109.5600471 388.275200
    435    433    437     1   107.9000462 406.684800
    435    433    436     1   108.4600466 328.025600
    436    433    437     1   107.9000462 406.684800
    437    438    447     1   107.9000462 406.684800
    437    438    448     1   107.9000462 406.684800
    437    439    440     1   107.9000462 406.684800
    437    439    442     1   107.9000462 406.684800
    438    449    450     1   109.8000471 387.438400
    438    449    451     1   109.8000471 387.438400
    438    437    502     1   110.1100470 384.091200
    439    441    443     1   109.8000471 387.438400
    439    441    444     1   109.8000471 387.438400
    439    437    502     1   110.1100470 384.091200
    440    439    441     1   109.5600471 388.275200
    440    439    442     1   108.4600466 328.025600
    441    439    442     1   109.5600471 388.275200
    443    441    445     1   108.7700466 392.459200
    443    441    444     1   107.5800459 329.699200
    444    441    445     1   108.7700466 392.459200
    445    477    467     1   119.3800509 410.868800
    447    438    449     1   109.5600471 388.275200
    447    438    448     1   108.4600466 328.025600
    448    438    449     1   109.5600471 388.275200
    450    449    452     1   108.7700466 392.459200
    450    449    451     1   107.5800459 329.699200
    451    449    452     1   108.7700466 392.459200
    452    501    491     1   119.3800509 410.868800
    454    455    474     1   109.5600471 388.275200
    454    465    468     1   109.5600471 388.275200
    454    465    469     1   109.5600471 388.275200
    455    457    461     1   109.5600471 388.275200
    455    475    476     1   107.2600461 396.643200
    455    454    456     1   109.5600471 388.275200
    456    454    465     1   109.5600471 388.275200
    456    454    472     1   109.7800468 425.094400
    457    458    460     1   109.5600471 388.275200
    457    464    466     1   107.2600461 396.643200
    457    455    474     1   109.5600471 388.275200
    458    459    462     1   110.2200475 386.601600
    458    477    467     1   109.2900470 396.643200
    458    457    461     1   109.5600471 388.275200
    459    463    473     1   107.2600461 396.643200
    459    458    460     1   109.5600471 388.275200
    460    458    477     1   109.8800469 414.216000
    461    457    464     1   110.2600474 425.931200
    462    459    463     1   109.4300470 427.604800
    462    459    472     1   109.5800467 425.931200
    465    470    471     1   107.2600461 396.643200
    468    465    470     1   110.2600474 425.931200
    468    465    469     1   108.4600466 328.025600
    469    465    470     1   110.2600474 425.931200
    474    455    475     1   110.2600474 425.931200
    478    479    498     1   109.5600471 388.275200
    478    489    492     1   109.5600471 388.275200
    478    489    493     1   109.5600471 388.275200
    479    481    485     1   109.5600471 388.275200
    479    499    500     1   107.2600461 396.643200
    479    478    480     1   109.5600471 388.275200
    480    478    489     1   109.5600471 388.275200
    480    478    496     1   109.7800468 425.094400
    481    482    484     1   109.5600471 388.275200
    481    488    490     1   107.2600461 396.643200
    481    479    498     1   109.5600471 388.275200
    482    483    486     1   110.2200475 386.601600
    482    501    491     1   109.2900470 396.643200
    482    481    485     1   109.5600471 388.275200
    483    487    497     1   107.2600461 396.643200
    483    482    484     1   109.5600471 388.275200
    484    482    501     1   109.8800469 414.216000
    485    481    488     1   110.2600474 425.931200
    486    483    487     1   109.4300470 427.604800
    486    483    496     1   109.5800467 425.931200
    489    494    495     1   107.2600461 396.643200
    492    489    494     1   110.2600474 425.931200
    492    489    493     1   108.4600466 328.025600
    493    489    494     1   110.2600474 425.931200
    498    479    499     1   110.2600474 425.931200
    503    505    506     1   108.8800464 416.726400
    503    505    508     1   108.8800464 416.726400
    504    503    505     1   117.6800502 383.254400
    505    507    509     1   109.5600471 388.275200
    505    507    510     1   109.5600471 388.275200
    506    505    507     1   109.5600471 388.275200
    506    505    508     1   108.4600466 328.025600
    507    505    508     1   109.5600471 388.275200
    507    511    576     1   110.1100470 384.091200
    509    507    511     1   107.9000462 406.684800
    509    507    510     1   108.4600466 328.025600
    510    507    511     1   107.9000462 406.684800
    511    512    521     1   107.9000462 406.684800
    511    512    522     1   107.9000462 406.684800
    511    513    514     1   107.9000462 406.684800
    511    513    516     1   107.9000462 406.684800
    512    511    576     1   110.1100470 384.091200
    512    523    524     1   109.8000471 387.438400
    512    523    525     1   109.8000471 387.438400
    513    511    576     1   110.1100470 384.091200
    513    515    517     1   109.8000471 387.438400
    513    515    518     1   109.8000471 387.438400
    514    513    515     1   109.5600471 388.275200
    514    513    516     1   108.4600466 328.025600
    515    513    516     1   109.5600471 388.275200
    517    515    519     1   108.7700466 392.459200
    517    515    518     1   107.5800459 329.699200
    518    515    519     1   108.7700466 392.459200
    519    551    541     1   119.3800509 410.868800
    521    512    523     1   109.5600471 388.275200
    521    512    522     1   108.4600466 328.025600
    522    512    523     1   109.5600471 388.275200
    524    523    526     1   108.7700466 392.459200
    524    523    525     1   107.5800459 329.699200
    525    523    526     1   108.7700466 392.459200
    526    575    565     1   119.3800509 410.868800
    528    529    548     1   109.5600471 388.275200
    528    539    542     1   109.5600471 388.275200
    528    539    543     1   109.5600471 388.275200
    529    528    530     1   109.5600471 388.275200
    529    531    535     1   109.5600471 388.275200
    529    549    550     1   107.2600461 396.643200
    530    528    539     1   109.5600471 388.275200
    530    528    546     1   109.7800468 425.094400
    531    529    548     1   109.5600471 388.275200
    531    532    534     1   109.5600471 388.275200
    531    538    540     1   107.2600461 396.643200
    532    531    535     1   109.5600471 388.275200
    532    533    536     1   110.2200475 386.601600
    532    551    541     1   109.2900470 396.643200
    533    532    534     1   109.5600471 388.275200
    533    537    547     1   107.2600461 396.643200
    534    532    551     1   109.8800469 414.216000
    535    531    538     1   110.2600474 425.931200
    536    533    537     1   109.4300470 427.604800
    536    533    546     1   109.5800467 425.931200
    539    544    545     1   107.2600461 396.643200
    542    539    544     1   110.2600474 425.931200
    542    539    543     1   108.4600466 328.025600
    543    539    544     1   110.2600474 425.931200
    548    529    549     1   110.2600474 425.931200
    552    553    572     1   109.5600471 388.275200
    552    563    566     1   109.5600471 388.275200
    552    563    567     1   109.5600471 388.275200
    553    552    554     1   109.5600471 388.275200
    553    555    559     1   109.5600471 388.275200
    553    573    574     1   107.2600461 396.643200
    554    552    563     1   109.5600471 388.275200
    554    552    570     1   109.7800468 425.094400
    555    553    572     1   109.5600471 388.275200
    555    556    558     1   109.5600471 388.275200
    555    562    564     1   107.2600461 396.643200
    556    555    559     1   109.5600471 388.275200
    556    557    560     1   110.2200475 386.601600
    556    575    565     1   109.2900470 396.643200
    557    556    558     1   109.5600471 388.275200
    557    561    571     1   107.2600461 396.643200
    558    556    575     1   109.8800469 414.216000
    559    555    562     1   110.2600474 425.931200
    560    557    561     1   109.4300470 427.604800
    560    557    570     1   109.5800467 425.931200
    563    568    569     1   107.2600461 396.643200
    566    563    568     1   110.2600474 425.931200
    566    563    567     1   108.4600466 328.025600
    567    563    568     1   110.2600474 425.931200
    572    553    573     1   110.2600474 425.931200
    577    579    580     1   108.8800464 416.726400
    577    579    582     1   108.8800464 416.726400
    578    577    579     1   117.6800502 383.254400
    579    581    583     1   109.5600471 388.275200
    579    581    584     1   109.5600471 388.275200
    580    579    581     1   109.5600471 388.275200
    580    579    582     1   108.4600466 328.025600
    581    585    650     1   110.1100470 384.091200
    581    579    582     1   109.5600471 388.275200
    583    581    585     1   107.9000462 406.684800
    583    581    584     1   108.4600466 328.025600
    584    581    585     1   107.9000462 406.684800
    585    586    595     1   107.9000462 406.684800
    585    586    596     1   107.9000462 406.684800
    585    587    588     1   107.9000462 406.684800
    585    587    590     1   107.9000462 406.684800
    586    597    598     1   109.8000471 387.438400
    586    597    599     1   109.8000471 387.438400
    586    585    650     1   110.1100470 384.091200
    587    589    591     1   109.8000471 387.438400
    587    589    592     1   109.8000471 387.438400
    587    585    650     1   110.1100470 384.091200
    588    587    589     1   109.5600471 388.275200
    588    587    590     1   108.4600466 328.025600
    589    587    590     1   109.5600471 388.275200
    591    589    593     1   108.7700466 392.459200
    591    589    592     1   107.5800459 329.699200
    592    589    593     1   108.7700466 392.459200
    593    625    615     1   119.3800509 410.868800
    595    586    597     1   109.5600471 388.275200
    595    586    596     1   108.4600466 328.025600
    596    586    597     1   109.5600471 388.275200
    598    597    600     1   108.7700466 392.459200
    598    597    599     1   107.5800459 329.699200
    599    597    600     1   108.7700466 392.459200
    600    649    639     1   119.3800509 410.868800
    602    603    622     1   109.5600471 388.275200
    602    613    616     1   109.5600471 388.275200
    602    613    617     1   109.5600471 388.275200
    603    605    609     1   109.5600471 388.275200
    603    623    624     1   107.2600461 396.643200
    603    602    604     1   109.5600471 388.275200
    604    602    613     1   109.5600471 388.275200
    604    602    620     1   109.7800468 425.094400
    605    606    608     1   109.5600471 388.275200
    605    612    614     1   107.2600461 396.643200
    605    603    622     1   109.5600471 388.275200
    606    607    610     1   110.2200475 386.601600
    606    625    615     1   109.2900470 396.643200
    606    605    609     1   109.5600471 388.275200
    607    611    621     1   107.2600461 396.643200
    607    606    608     1   109.5600471 388.275200
    608    606    625     1   109.8800469 414.216000
    609    605    612     1   110.2600474 425.931200
    610    607    611     1   109.4300470 427.604800
    610    607    620     1   109.5800467 425.931200
    613    618    619     1   107.2600461 396.643200
    616    613    618     1   110.2600474 425.931200
    616    613    617     1   108.4600466 328.025600
    617    613    618     1   110.2600474 425.931200
    622    603    623     1   110.2600474 425.931200
    626    627    646     1   109.5600471 388.275200
    626    637    640     1   109.5600471 388.275200
    626    637    641     1   109.5600471 388.275200
    627    629    633     1   109.5600471 388.275200
    627    647    648     1   107.2600461 396.643200
    627    626    628     1   109.5600471 388.275200
    628    626    637     1   109.5600471 388.275200
    628    626    644     1   109.7800468 425.094400
    629    630    632     1   109.5600471 388.275200
    629    636    638     1   107.2600461 396.643200
    629    627    646     1   109.5600471 388.275200
    630    631    634     1   110.2200475 386.601600
    630    649    639     1   109.2900470 396.643200
    630    629    633     1   109.5600471 388.275200
    631    635    645     1   107.2600461 396.643200
    631    630    632     1   109.5600471 388.275200
    632    630    649     1   109.8800469 414.216000
    633    629    636     1   110.2600474 425.931200
    634    631    635     1   109.4300470 427.604800
    634    631    644     1   109.5800467 425.931200
    637    642    643     1   107.2600461 396.643200
    640    637    642     1   110.2600474 425.931200
    640    637    641     1   108.4600466 328.025600
    641    637    642     1   110.2600474 425.931200
    646    627    647     1   110.2600474 425.931200
    651    653    654     1   108.8800464 416.726400
    651    653    656     1   108.8800464 416.726400
    652    651    653     1   117.6800502 383.254400
    653    655    657     1   109.5600471 388.275200
    653    655    658     1   109.5600471 388.275200
    654    653    655     1   109.5600471 388.275200
    654    653    656     1   108.4600466 328.025600
    655    653    656     1   109.5600471 388.275200
    655    659    724     1   110.1100470 384.091200
    657    655    659     1   107.9000462 406.684800
    657    655    658     1   108.4600466 328.025600
    658    655    659     1   107.9000462 406.684800
    659    660    669     1   107.9000462 406.684800
    659    660    670     1   107.9000462 406.684800
    659    661    662     1   107.9000462 406.684800
    659    661    664     1   107.9000462 406.684800
    660    659    724     1   110.1100470 384.091200
    660    671    672     1   109.8000471 387.438400
    660    671    673     1   109.8000471 387.438400
    661    659    724     1   110.1100470 384.091200
    661    663    665     1   109.8000471 387.438400
    661    663    666     1   109.8000471 387.438400
    662    661    663     1   109.5600471 388.275200
    662    661    664     1   108.4600466 328.025600
    663    661    664     1   109.5600471 388.275200
    665    663    667     1   108.7700466 392.459200
    665    663    666     1   107.5800459 329.699200
    666    663    667     1   108.7700466 392.459200
    667    699    689     1   119.3800509 410.868800
    669    660    671     1   109.5600471 388.275200
    669    660    670     1   108.4600466 328.025600
    670    660    671     1   109.5600471 388.275200
    672    671    674     1   108.7700466 392.459200
    672    671    673     1   107.5800459 329.699200
    673    671    674     1   108.7700466 392.459200
    674    723    713     1   119.3800509 410.868800
    676    677    696     1   109.5600471 388.275200
    676    687    690     1   109.5600471 388.275200
    676    687    691     1   109.5600471 388.275200
    677    676    678     1   109.5600471 388.275200
    677    679    683     1   109.5600471 388.275200
    677    697    698     1   107.2600461 396.643200
    678    676    687     1   109.5600471 388.275200
    678    676    694     1   109.7800468 425.094400
    679    677    696     1   109.5600471 388.275200
    679    680    682     1   109.5600471 388.275200
    679    686    688     1   107.2600461 396.643200
    680    679    683     1   109.5600471 388.275200
    680    681    684     1   110.2200475 386.601600
    680    699    689     1   109.2900470 396.643200
    681    680    682     1   109.5600471 388.275200
    681    685    695     1   107.2600461 396.643200
    682    680    699     1   109.8800469 414.216000
    683    679    686     1   110.2600474 425.931200
    684    681    685     1   109.4300470 427.604800
    684    681    694     1   109.5800467 425.931200
    687    692    693     1   107.2600461 396.643200
    690    687    692     1   110.2600474 425.931200
    690    687    691     1   108.4600466 328.025600
    691    687    692     1   110.2600474 425.931200
    696    677    697     1   110.2600474 425.931200
    700    701    720     1   109.5600471 388.275200
    700    711    714     1   109.5600471 388.275200
    700    711    715     1   109.5600471 388.275200
    701    700    702     1   109.5600471 388.275200
    701    703    707     1   109.5600471 388.275200
    701    721    722     1   107.2600461 396.643200
    702    700    711     1   109.5600471 388.275200
    702    700    718     1   109.7800468 425.094400
    703    701    720     1   109.5600471 388.275200
    703    704    706     1   109.5600471 388.275200
    703    710    712     1   107.2600461 396.643200
    704    703    707     1   109.5600471 388.275200
    704    705    708     1   110.2200475 386.601600
    704    723    713     1   109.2900470 396.643200
    705    704    706     1   109.5600471 388.275200
    705    709    719     1   107.2600461 396.643200
    706    704    723     1   109.8800469 414.216000
    707    703    710     1   110.2600474 425.931200
    708    705    709     1   109.4300470 427.604800
    708    705    718     1   109.5800467 425.931200
    711    716    717     1   107.2600461 396.643200
    714    711    716     1   110.2600474 425.931200
    714    711    715     1   108.4600466 328.025600
    715    711    716     1   110.2600474 425.931200
    720    701    721     1   110.2600474 425.931200
    725    727    728     1   108.8800464 416.726400
    725    727    730     1   108.8800464 416.726400
    726    725    727     1   117.6800502 383.254400
    727    729    731     1   109.5600471 388.275200
    727    729    732     1   109.5600471 388.275200
    728    727    729     1   109.5600471 388.275200
    728    727    730     1   108.4600466 328.025600
    729    733    798     1   110.1100470 384.091200
    729    727    730     1   109.5600471 388.275200
    731    729    733     1   107.9000462 406.684800
    731    729    732     1   108.4600466 328.025600
    732    729    733     1   107.9000462 406.684800
    733    734    743     1   107.9000462 406.684800
    733    734    744     1   107.9000462 406.684800
    733    735    736     1   107.9000462 406.684800
    733    735    738     1   107.9000462 406.684800
    734    745    746     1   109.8000471 387.438400
    734    745    747     1   109.8000471 387.438400
    734    733    798     1   110.1100470 384.091200
    735    737    739     1   109.8000471 387.438400
    735    737    740     1   109.8000471 387.438400
    735    733    798     1   110.1100470 384.091200
    736    735    737     1   109.5600471 388.275200
    736    735    738     1   108.4600466 328.025600
    737    735    738     1   109.5600471 388.275200
    739    737    741     1   108.7700466 392.459200
    739    737    740     1   107.5800459 329.699200
    740    737    741     1   108.7700466 392.459200
    741    773    763     1   119.3800509 410.868800
    743    734    745     1   109.5600471 388.275200
    743    734    744     1   108.4600466 328.025600
    744    734    745     1   109.5600471 388.275200
    746    745    748     1   108.7700466 392.459200
    746    745    747     1   107.5800459 329.699200
    747    745    748     1   108.7700466 392.459200
    748    797    787     1   119.3800509 410.868800
    750    751    770     1   109.5600471 388.275200
    750    761    764     1   109.5600471 388.275200
    750    761    765     1   109.5600471 388.275200
    751    753    757     1   109.5600471 388.275200
    751    771    772     1   107.2600461 396.643200
    751    750    752     1   109.5600471 388.275200
    752    750    761     1   109.5600471 388.275200
    752    750    768     1   109.7800468 425.094400
    753    754    756     1   109.5600471 388.275200
    753    760    762     1   107.2600461 396.643200
    753    751    770     1   109.5600471 388.275200
    754    755    758     1   110.2200475 386.601600
    754    773    763     1   109.2900470 396.643200
    754    753    757     1   109.5600471 388.275200
    755    759    769     1   107.2600461 396.643200
    755    754    756     1   109.5600471 388.275200
    756    754    773     1   109.8800469 414.216000
    757    753    760     1   110.2600474 425.931200
    758    755    759     1   109.4300470 427.604800
    758    755    768     1   109.5800467 425.931200
    761    766    767     1   107.2600461 396.643200
    764    761    766     1   110.2600474 425.931200
    764    761    765     1   108.4600466 328.025600
    765    761    766     1   110.2600474 425.931200
    770    751    771     1   110.2600474 425.931200
    774    775    794     1   109.5600471 388.275200
    774    785    788     1   109.5600471 388.275200
    774    785    789     1   109.5600471 388.275200
    775    777    781     1   109.5600471 388.275200
    775    795    796     1   107.2600461 396.643200
    775    774    776     1   109.5600471 388.275200
    776    774    785     1   109.5600471 388.275200
    776    774    792     1   109.7800468 425.094400
    777    778    780     1   109.5600471 388.275200
    777    784    786     1   107.2600461 396.643200
    777    775    794     1   109.5600471 388.275200
    778    779    782     1   110.2200475 386.601600
    778    797    787     1   109.2900470 396.643200
    778    777    781     1   109.5600471 388.275200
    779    783    793     1   107.2600461 396.643200
    779    778    780     1   109.5600471 388.275200
    780    778    797     1   109.8800469 414.216000
    781    777    784     1   110.2600474 425.931200
    782    779    783     1   109.4300470 427.604800
    782    779    792     1   109.5800467 425.931200
    785    790    791     1   107.2600461 396.643200
    788    785    790     1   110.2600474 425.931200
    788    785    789     1   108.4600466 328.025600
    789    785    790     1   110.2600474 425.931200
    794    775    795     1   110.2600474 425.931200
    799    801    802     1   108.8800464 416.726400
    799    801    804     1   108.8800464 416.726400
    800    799    801     1   117.6800502 383.254400
    801    803    805     1   109.5600471 388.275200
    801    803    806     1   109.5600471 388.275200
    802    801    803     1   109.5600471 388.275200
    802    801    804     1   108.4600466 328.025600
    803    801    804     1   109.5600471 388.275200
    803    807    872     1   110.1100470 384.091200
    805    803    807     1   107.9000462 406.684800
    805    803    806     1   108.4600466 328.025600
    806    803    807     1   107.9000462 406.684800
    807    808    817     1   107.9000462 406.684800
    807    808    818     1   107.9000462 406.684800
    807    809    810     1   107.9000462 406.684800
    807    809    812     1   107.9000462 406.684800
    808    807    872     1   110.1100470 384.091200
    808    819    820     1   109.8000471 387.438400
    808    819    821     1   109.8000471 387.438400
    809    807    872     1   110.1100470 384.091200
    809    811    813     1   109.8000471 387.438400
    809    811    814     1   109.8000471 387.438400
    810    809    811     1   109.5600471 388.275200
    810    809    812     1   108.4600466 328.025600
    811    809    812     1   109.5600471 388.275200
    813    811    815     1   108.7700466 392.459200
    813    811    814     1   107.5800459 329.699200
    814    811    815     1   108.7700466 392.459200
    815    847    837     1   119.3800509 410.868800
    817    808    819     1   109.5600471 388.275200
    817    808    818     1   108.4600466 328.025600
    818    808    819     1   109.5600471 388.275200
    820    819    822     1   108.7700466 392.459200
    820    819    821     1   107.5800459 329.699200
    821    819    822     1   108.7700466 392.459200
    822    871    861     1   119.3800509 410.868800
    824    825    844     1   109.5600471 388.275200
    824    835    838     1   109.5600471 388.275200
    824    835    839     1   109.5600471 388.275200
    825    824    826     1   109.5600471 388.275200
    825    827    831     1   109.5600471 388.275200
    825    845    846     1   107.2600461 396.643200
    826    824    835     1   109.5600471 388.275200
    826    824    842     1   109.7800468 425.094400
    827    825    844     1   109.5600471 388.275200
    827    828    830     1   109.5600471 388.275200
    827    834    836     1   107.2600461 396.643200
    828    827    831     1   109.5600471 388.275200
    828    829    832     1   110.2200475 386.601600
    828    847    837     1   109.2900470 396.643200
    829    828    830     1   109.5600471 388.275200
    829    833    843     1   107.2600461 396.643200
    830    828    847     1   109.8800469 414.216000
    831    827    834     1   110.2600474 425.931200
    832    829    833     1   109.4300470 427.604800
    832    829    842     1   109.5800467 425.931200
    835    840    841     1   107.2600461 396.643200
    838    835    840     1   110.2600474 425.931200
    838    835    839     1   108.4600466 328.025600
    839    835    840     1   110.2600474 425.931200
    844    825    845     1   110.2600474 425.931200
    848    849    868     1   109.5600471 388.275200
    848    859    862     1   109.5600471 388.275200
    848    859    863     1   109.5600471 388.275200
    849    848    850     1   109.5600471 388.275200
    849    851    855     1   109.5600471 388.275200
    849    869    870     1   107.2600461 396.643200
    850    848    859     1   109.5600471 388.275200
    850    848    866     1   109.7800468 425.094400
    851    849    868     1   109.5600471 388.275200
    851    852    854     1   109.5600471 388.275200
    851    858    860     1   107.2600461 396.643200
    852    851    855     1   109.5600471 388.275200
    852    853    856     1   110.2200475 386.601600
    852    871    861     1   109.2900470 396.643200
    853    852    854     1   109.5600471 388.275200
    853    857    867     1   107.2600461 396.643200
    854    852    871     1   109.8800469 414.216000
    855    851    858     1   110.2600474 425.931200
    856    853    857     1   109.4300470 427.604800
    856    853    866     1   109.5800467 425.931200
    859    864    865     1   107.2600461 396.643200
    862    859    864     1   110.2600474 425.931200
    862    859    863     1   108.4600466 328.025600
    863    859    864     1   110.2600474 425.931200
    868    849    869     1   110.2600474 425.931200
    873    875    876     1   108.8800464 416.726400
    873    875    878     1   108.8800464 416.726400
    874    873    875     1   117.6800502 383.254400
    875    877    879     1   109.5600471 388.275200
    875    877    880     1   109.5600471 388.275200
    876    875    877     1   109.5600471 388.275200
    876    875    878     1   108.4600466 328.025600
    877    881    946     1   110.1100470 384.091200
    877    875    878     1   109.5600471 388.275200
    879    877    881     1   107.9000462 406.684800
    879    877    880     1   108.4600466 328.025600
    880    877    881     1   107.9000462 406.684800
    881    882    891     1   107.9000462 406.684800
    881    882    892     1   107.9000462 406.684800
    881    883    884     1   107.9000462 406.684800
    881    883    886     1   107.9000462 406.684800
    882    893    894     1   109.8000471 387.438400
    882    893    895     1   109.8000471 387.438400
    882    881    946     1   110.1100470 384.091200
    883    885    887     1   109.8000471 387.438400
    883    885    888     1   109.8000471 387.438400
    883    881    946     1   110.1100470 384.091200
    884    883    885     1   109.5600471 388.275200
    884    883    886     1   108.4600466 328.025600
    885    883    886     1   109.5600471 388.275200
    887    885    889     1   108.7700466 392.459200
    887    885    888     1   107.5800459 329.699200
    888    885    889     1   108.7700466 392.459200
    889    921    911     1   119.3800509 410.868800
    891    882    893     1   109.5600471 388.275200
    891    882    892     1   108.4600466 328.025600
    892    882    893     1   109.5600471 388.275200
    894    893    896     1   108.7700466 392.459200
    894    893    895     1   107.5800459 329.699200
    895    893    896     1   108.7700466 392.459200
    896    945    935     1   119.3800509 410.868800
    898    899    918     1   109.5600471 388.275200
    898    909    912     1   109.5600471 388.275200
    898    909    913     1   109.5600471 388.275200
    899    901    905     1   109.5600471 388.275200
    899    919    920     1   107.2600461 396.643200
    899    898    900     1   109.5600471 388.275200
    900    898    909     1   109.5600471 388.275200
    900    898    916     1   109.7800468 425.094400
    901    902    904     1   109.5600471 388.275200
    901    908    910     1   107.2600461 396.643200
    901    899    918     1   109.5600471 388.275200
    902    903    906     1   110.2200475 386.601600
    902    921    911     1   109.2900470 396.643200
    902    901    905     1   109.5600471 388.275200
    903    907    917     1   107.2600461 396.643200
    903    902    904     1   109.5600471 388.275200
    904    902    921     1   109.8800469 414.216000
    905    901    908     1   110.2600474 425.931200
    906    903    907     1   109.4300470 427.604800
    906    903    916     1   109.5800467 425.931200
    909    914    915     1   107.2600461 396.643200
    912    909    914     1   110.2600474 425.931200
    912    909    913     1   108.4600466 328.025600
    913    909    914     1   110.2600474 425.931200
    918    899    919     1   110.2600474 425.931200
    922    923    942     1   109.5600471 388.275200
    922    933    936     1   109.5600471 388.275200
    922    933    937     1   109.5600471 388.275200
    923    925    929     1   109.5600471 388.275200
    923    943    944     1   107.2600461 396.643200
    923    922    924     1   109.5600471 388.275200
    924    922    933     1   109.5600471 388.275200
    924    922    940     1   109.7800468 425.094400
    925    926    928     1   109.5600471 388.275200
    925    932    934     1   107.2600461 396.643200
    925    923    942     1   109.5600471 388.275200
    926    927    930     1   110.2200475 386.601600
    926    945    935     1   109.2900470 396.643200
    926    925    929     1   109.5600471 388.275200
    927    931    941     1   107.2600461 396.643200
    927    926    928     1   109.5600471 388.275200
    928    926    945     1   109.8800469 414.216000
    929    925    932     1   110.2600474 425.931200
    930    927    931     1   109.4300470 427.604800
    930    927    940     1   109.5800467 425.931200
    933    938    939     1   107.2600461 396.643200
    936    933    938     1   110.2600474 425.931200
    936    933    937     1   108.4600466 328.025600
    937    933    938     1   110.2600474 425.931200
    942    923    943     1   110.2600474 425.931200
    947    949    950     1   108.8800464 416.726400
    947    949    952     1   108.8800464 416.726400
    948    947    949     1   117.6800502 383.254400
    949    951    953     1   109.5600471 388.275200
    949    951    954     1   109.5600471 388.275200
    950    949    951     1   109.5600471 388.275200
    950    949    952     1   108.4600466 328.025600
    951    949    952     1   109.5600471 388.275200
    951    955   1020     1   110.1100470 384.091200
    953    951    955     1   107.9000462 406.684800
    953    951    954     1   108.4600466 328.025600
    954    951    955     1   107.9000462 406.684800
    955    956    965     1   107.9000462 406.684800
    955    956    966     1   107.9000462 406.684800
    955    957    958     1   107.9000462 406.684800
    955    957    960     1   107.9000462 406.684800
    956    955   1020     1   110.1100470 384.091200
    956    967    968     1   109.8000471 387.438400
    956    967    969     1   109.8000471 387.438400
    957    955   1020     1   110.1100470 384.091200
    957    959    961     1   109.8000471 387.438400
    957    959    962     1   109.8000471 387.438400
    958    957    959     1   109.5600471 388.275200
    958    957    960     1   108.4600466 328.025600
    959    957    960     1   109.5600471 388.275200
    961    959    963     1   108.7700466 392.459200
    961    959    962     1   107.5800459 329.699200
    962    959    963     1   108.7700466 392.459200
    963    995    985     1   119.3800509 410.868800
    965    956    967     1   109.5600471 388.275200
    965    956    966     1   108.4600466 328.025600
    966    956    967     1   109.5600471 388.275200
    968    967    970     1   108.7700466 392.459200
    968    967    969     1   107.5800459 329.699200
    969    967    970     1   108.7700466 392.459200
    970   1019   1009     1   119.3800509 410.868800
    972    973    992     1   109.5600471 388.275200
    972    983    986     1   109.5600471 388.275200
    972    983    987     1   109.5600471 388.275200
    973    972    974     1   109.5600471 388.275200
    973    975    979     1   109.5600471 388.275200
    973    993    994     1   107.2600461 396.643200
    974    972    983     1   109.5600471 388.275200
    974    972    990     1   109.7800468 425.094400
    975    973    992     1   109.5600471 388.275200
    975    976    978     1   109.5600471 388.275200
    975    982    984     1   107.2600461 396.643200
    976    975    979     1   109.5600471 388.275200
    976    977    980     1   110.2200475 386.601600
    976    995    985     1   109.2900470 396.643200
    977    976    978     1   109.5600471 388.275200
    977    981    991     1   107.2600461 396.643200
    978    976    995     1   109.8800469 414.216000
    979    975    982     1   110.2600474 425.931200
    980    977    981     1   109.4300470 427.604800
    980    977    990     1   109.5800467 425.931200
    983    988    989     1   107.2600461 396.643200
    986    983    988     1   110.2600474 425.931200
    986    983    987     1   108.4600466 328.025600
    987    983    988     1   110.2600474 425.931200
    992    973    993     1   110.2600474 425.931200
    996    997   1016     1   109.5600471 388.275200
    996   1007   1010     1   109.5600471 388.275200
    996   1007   1011     1   109.5600471 388.275200
    997    996    998     1   109.5600471 388.275200
    997    999   1003     1   109.5600471 388.275200
    997   1017   1018     1   107.2600461 396.643200
    998    996   1007     1   109.5600471 388.275200
    998    996   1014     1   109.7800468 425.094400
    999    997   1016     1   109.5600471 388.275200
    999   1000   1002     1   109.5600471 388.275200
    999   1006   1008     1   107.2600461 396.643200
   1000    999   1003     1   109.5600471 388.275200
   1000   1001   1004     1   110.2200475 386.601600
   1000   1019   1009     1   109.2900470 396.643200
   1001   1000   1002     1   109.5600471 388.275200
   1001   1005   1015     1   107.2600461 396.643200
   1002   1000   1019     1   109.8800469 414.216000
   1003    999   1006     1   110.2600474 425.931200
   1004   1001   1005     1   109.4300470 427.604800
   1004   1001   1014     1   109.5800467 425.931200
   1007   1012   1013     1   107.2600461 396.643200
   1010   1007   1012     1   110.2600474 425.931200
   1010   1007   1011     1   108.4600466 328.025600
   1011   1007   1012     1   110.2600474 425.931200
   1016    997   1017     1   110.2600474 425.931200
   1021   1023   1024     1   108.8800464 416.726400
   1021   1023   1026     1   108.8800464 416.726400
   1022   1021   1023     1   117.6800502 383.254400
   1023   1025   1027     1   109.5600471 388.275200
   1023   1025   1028     1   109.5600471 388.275200
   1024   1023   1025     1   109.5600471 388.275200
   1024   1023   1026     1   108.4600466 328.025600
   1025   1029   1094     1   110.1100470 384.091200
   1025   1023   1026     1   109.5600471 388.275200
   1027   1025   1029     1   107.9000462 406.684800
   1027   1025   1028     1   108.4600466 328.025600
   1028   1025   1029     1   107.9000462 406.684800
   1029   1030   1039     1   107.9000462 406.684800
   1029   1030   1040     1   107.9000462 406.684800
   1029   1031   1032     1   107.9000462 406.684800
   1029   1031   1034     1   107.9000462 406.684800
   1030   1041   1042     1   109.8000471 387.438400
   1030   1041   1043     1   109.8000471 387.438400
   1030   1029   1094     1   110.1100470 384.091200
   1031   1033   1035     1   109.8000471 387.438400
   1031   1033   1036     1   109.8000471 387.438400
   1031   1029   1094     1   110.1100470 384.091200
   1032   1031   1033     1   109.5600471 388.275200
   1032   1031   1034     1   108.4600466 328.025600
   1033   1031   1034     1   109.5600471 388.275200
   1035   1033   1037     1   108.7700466 392.459200
   1035   1033   1036     1   107.5800459 329.699200
   1036   1033   1037     1   108.7700466 392.459200
   1037   1069   1059     1   119.3800509 410.868800
   1039   1030   1041     1   109.5600471 388.275200
   1039   1030   1040     1   108.4600466 328.025600
   1040   1030   1041     1   109.5600471 388.275200
   1042   1041   1044     1   108.7700466 392.459200
   1042   1041   1043     1   107.5800459 329.699200
   1043   1041   1044     1   108.7700466 392.459200
   1044   1093   1083     1   119.3800509 410.868800
   1046   1047   1066     1   109.5600471 388.275200
   1046   1057   1060     1   109.5600471 388.275200
   1046   1057   1061     1   109.5600471 388.275200
   1047   1049   1053     1   109.5600471 388.275200
   1047   1067   1068     1   107.2600461 396.643200
   1047   1046   1048     1   109.5600471 388.275200
   1048   1046   1057     1   109.5600471 388.275200
   1048   1046   1064     1   109.7800468 425.094400
   1049   1050   1052     1   109.5600471 388.275200
   1049   1056   1058     1   107.2600461 396.643200
   1049   1047   1066     1   109.5600471 388.275200
   1050   1051   1054     1   110.2200475 386.601600
   1050   1069   1059     1   109.2900470 396.643200
   1050   1049   1053     1   109.5600471 388.275200
   1051   1055   1065     1   107.2600461 396.643200
   1051   1050   1052     1   109.5600471 388.275200
   1052   1050   1069     1   109.8800469 414.216000
   1053   1049   1056     1   110.2600474 425.931200
   1054   1051   1055     1   109.4300470 427.604800
   1054   1051   1064     1   109.5800467 425.931200
   1057   1062   1063     1   107.2600461 396.643200
   1060   1057   1062     1   110.2600474 425.931200
   1060   1057   1061     1   108.4600466 328.025600
   1061   1057   1062     1   110.2600474 425.931200
   1066   1047   1067     1   110.2600474 425.931200
   1070   1071   1090     1   109.5600471 388.275200
   1070   1081   1084     1   109.5600471 388.275200
   1070   1081   1085     1   109.5600471 388.275200
   1071   1073   1077     1   109.5600471 388.275200
   1071   1091   1092     1   107.2600461 396.643200
   1071   1070   1072     1   109.5600471 388.275200
   1072   1070   1081     1   109.5600471 388.275200
   1072   1070   1088     1   109.7800468 425.094400
   1073   1074   1076     1   109.5600471 388.275200
   1073   1080   1082     1   107.2600461 396.643200
   1073   1071   1090     1   109.5600471 388.275200
   1074   1075   1078     1   110.2200475 386.601600
   1074   1093   1083     1   109.2900470 396.643200
   1074   1073   1077     1   109.5600471 388.275200
   1075   1079   1089     1   107.2600461 396.643200
   1075   1074   1076     1   109.5600471 388.275200
   1076   1074   1093     1   109.8800469 414.216000
   1077   1073   1080     1   110.2600474 425.931200
   1078   1075   1079     1   109.4300470 427.604800
   1078   1075   1088     1   109.5800467 425.931200
   1081   1086   1087     1   107.2600461 396.643200
   1084   1081   1086     1   110.2600474 425.931200
   1084   1081   1085     1   108.4600466 328.025600
   1085   1081   1086     1   110.2600474 425.931200
   1090   1071   1091     1   110.2600474 425.931200
   1095   1097   1098     1   108.8800464 416.726400
   1095   1097   1100     1   108.8800464 416.726400
   1096   1095   1097     1   117.6800502 383.254400
   1097   1099   1101     1   109.5600471 388.275200
   1097   1099   1102     1   109.5600471 388.275200
   1098   1097   1099     1   109.5600471 388.275200
   1098   1097   1100     1   108.4600466 328.025600
   1099   1097   1100     1   109.5600471 388.275200
   1099   1103   1168     1   110.1100470 384.091200
   1101   1099   1103     1   107.9000462 406.684800
   1101   1099   1102     1   108.4600466 328.025600
   1102   1099   1103     1   107.9000462 406.684800
   1103   1104   1113     1   107.9000462 406.684800
   1103   1104   1114     1   107.9000462 406.684800
   1103   1105   1106     1   107.9000462 406.684800
   1103   1105   1108     1   107.9000462 406.684800
   1104   1103   1168     1   110.1100470 384.091200
   1104   1115   1116     1   109.8000471 387.438400
   1104   1115   1117     1   109.8000471 387.438400
   1105   1103   1168     1   110.1100470 384.091200
   1105   1107   1109     1   109.8000471 387.438400
   1105   1107   1110     1   109.8000471 387.438400
   1106   1105   1107     1   109.5600471 388.275200
   1106   1105   1108     1   108.4600466 328.025600
   1107   1105   1108     1   109.5600471 388.275200
   1109   1107   1111     1   108.7700466 392.459200
   1109   1107   1110     1   107.5800459 329.699200
   1110   1107   1111     1   108.7700466 392.459200
   1111   1143   1133     1   119.3800509 410.868800
   1113   1104   1115     1   109.5600471 388.275200
   1113   1104   1114     1   108.4600466 328.025600
   1114   1104   1115     1   109.5600471 388.275200
   1116   1115   1118     1   108.7700466 392.459200
   1116   1115   1117     1   107.5800459 329.699200
   1117   1115   1118     1   108.7700466 392.459200
   1118   1167   1157     1   119.3800509 410.868800
   1120   1121   1140     1   109.5600471 388.275200
   1120   1131   1134     1   109.5600471 388.275200
   1120   1131   1135     1   109.5600471 388.275200
   1121   1120   1122     1   109.5600471 388.275200
   1121   1123   1127     1   109.5600471 388.275200
   1121   1141   1142     1   107.2600461 396.643200
   1122   1120   1131     1   109.5600471 388.275200
   1122   1120   1138     1   109.7800468 425.094400
   1123   1121   1140     1   109.5600471 388.275200
   1123   1124   1126     1   109.5600471 388.275200
   1123   1130   1132     1   107.2600461 396.643200
   1124   1123   1127     1   109.5600471 388.275200
   1124   1125   1128     1   110.2200475 386.601600
   1124   1143   1133     1   109.2900470 396.643200
   1125   1124   1126     1   109.5600471 388.275200
   1125   1129   1139     1   107.2600461 396.643200
   1126   1124   1143     1   109.8800469 414.216000
   1127   1123   1130     1   110.2600474 425.931200
   1128   1125   1129     1   109.4300470 427.604800
   1128   1125   1138     1   109.5800467 425.931200
   1131   1136   1137     1   107.2600461 396.643200
   1134   1131   1136     1   110.2600474 425.931200
   1134   1131   1135     1   108.4600466 328.025600
   1135   1131   1136     1   110.2600474 425.931200
   1140   1121   1141     1   110.2600474 425.931200
   1144   1145   1164     1   109.5600471 388.275200
   1144   1155   1158     1   109.5600471 388.275200
   1144   1155   1159     1   109.5600471 388.275200
   1145   1144   1146     1   109.5600471 388.275200
   1145   1147   1151     1   109.5600471 388.275200
   1145   1165   1166     1   107.2600461 396.643200
   1146   1144   1155     1   109.5600471 388.275200
   1146   1144   1162     1   109.7800468 425.094400
   1147   1145   1164     1   109.5600471 388.275200
   1147   1148   1150     1   109.5600471 388.275200
   1147   1154   1156     1   107.2600461 396.643200
   1148   1147   1151     1   109.5600471 388.275200
   1148   1149   1152     1   110.2200475 386.601600
   1148   1167   1157     1   109.2900470 396.643200
   1149   1148   1150     1   109.5600471 388.275200
   1149   1153   1163     1   107.2600461 396.643200
   1150   1148   1167     1   109.8800469 414.216000
   1151   1147   1154     1   110.2600474 425.931200
   1152   1149   1153     1   109.4300470 427.604800
   1152   1149   1162     1   109.5800467 425.931200
   1155   1160   1161     1   107.2600461 396.643200
   1158   1155   1160     1   110.2600474 425.931200
   1158   1155   1159     1   108.4600466 328.025600
   1159   1155   1160     1   110.2600474 425.931200
   1164   1145   1165     1   110.2600474 425.931200
   1169   1171   1172     1   108.8800464 416.726400
   1169   1171   1174     1   108.8800464 416.726400
   1170   1169   1171     1   117.6800502 383.254400
   1171   1173   1175     1   109.5600471 388.275200
   1171   1173   1176     1   109.5600471 388.275200
   1172   1171   1173     1   109.5600471 388.275200
   1172   1171   1174     1   108.4600466 328.025600
   1173   1177   1242     1   110.1100470 384.091200
   1173   1171   1174     1   109.5600471 388.275200
   1175   1173   1177     1   107.9000462 406.684800
   1175   1173   1176     1   108.4600466 328.025600
   1176   1173   1177     1   107.9000462 406.684800
   1177   1178   1187     1   107.9000462 406.684800
   1177   1178   1188     1   107.9000462 406.684800
   1177   1179   1180     1   107.9000462 406.684800
   1177   1179   1182     1   107.9000462 406.684800
   1178   1189   1190     1   109.8000471 387.438400
   1178   1189   1191     1   109.8000471 387.438400
   1178   1177   1242     1   110.1100470 384.091200
   1179   1181   1183     1   109.8000471 387.438400
   1179   1181   1184     1   109.8000471 387.438400
   1179   1177   1242     1   110.1100470 384.091200
   1180   1179   1181     1   109.5600471 388.275200
   1180   1179   1182     1   108.4600466 328.025600
   1181   1179   1182     1   109.5600471 388.275200
   1183   1181   1185     1   108.7700466 392.459200
   1183   1181   1184     1   107.5800459 329.699200
   1184   1181   1185     1   108.7700466 392.459200
   1185   1217   1207     1   119.3800509 410.868800
   1187   1178   1189     1   109.5600471 388.275200
   1187   1178   1188     1   108.4600466 328.025600
   1188   1178   1189     1   109.5600471 388.275200
   1190   1189   1192     1   108.7700466 392.459200
   1190   1189   1191     1   107.5800459 329.699200
   1191   1189   1192     1   108.7700466 392.459200
   1192   1241   1231     1   119.3800509 410.868800
   1194   1195   1214     1   109.5600471 388.275200
   1194   1205   1208     1   109.5600471 388.275200
   1194   1205   1209     1   109.5600471 388.275200
   1195   1197   1201     1   109.5600471 388.275200
   1195   1215   1216     1   107.2600461 396.643200
   1195   1194   1196     1   109.5600471 388.275200
   1196   1194   1205     1   109.5600471 388.275200
   1196   1194   1212     1   109.7800468 425.094400
   1197   1198   1200     1   109.5600471 388.275200
   1197   1204   1206     1   107.2600461 396.643200
   1197   1195   1214     1   109.5600471 388.275200
   1198   1199   1202     1   110.2200475 386.601600
   1198   1217   1207     1   109.2900470 396.643200
   1198   1197   1201     1   109.5600471 388.275200
   1199   1203   1213     1   107.2600461 396.643200
   1199   1198   1200     1   109.5600471 388.275200
   1200   1198   1217     1   109.8800469 414.216000
   1201   1197   1204     1   110.2600474 425.931200
   1202   1199   1203     1   109.4300470 427.604800
   1202   1199   1212     1   109.5800467 425.931200
   1205   1210   1211     1   107.2600461 396.643200
   1208   1205   1210     1   110.2600474 425.931200
   1208   1205   1209     1   108.4600466 328.025600
   1209   1205   1210     1   110.2600474 425.931200
   1214   1195   1215     1   110.2600474 425.931200
   1218   1219   1238     1   109.5600471 388.275200
   1218   1229   1232     1   109.5600471 388.275200
   1218   1229   1233     1   109.5600471 388.275200
   1219   1221   1225     1   109.5600471 388.275200
   1219   1239   1240     1   107.2600461 396.643200
   1219   1218   1220     1   109.5600471 388.275200
   1220   1218   1229     1   109.5600471 388.275200
   1220   1218   1236     1   109.7800468 425.094400
   1221   1222   1224     1   109.5600471 388.275200
   1221   1228   1230     1   107.2600461 396.643200
   1221   1219   1238     1   109.5600471 388.275200
   1222   1223   1226     1   110.2200475 386.601600
   1222   1241   1231     1   109.2900470 396.643200
   1222   1221   1225     1   109.5600471 388.275200
   1223   1227   1237     1   107.2600461 396.643200
   1223   1222   1224     1   109.5600471 388.275200
   1224   1222   1241     1   109.8800469 414.216000
   1225   1221   1228     1   110.2600474 425.931200
   1226   1223   1227     1   109.4300470 427.604800
   1226   1223   1236     1   109.5800467 425.931200
   1229   1234   1235     1   107.2600461 396.643200
   1232   1229   1234     1   110.2600474 425.931200
   1232   1229   1233     1   108.4600466 328.025600
   1233   1229   1234     1   110.2600474 425.931200
   1238   1219   1239     1   110.2600474 425.931200
   1243   1245   1246     1   108.8800464 416.726400
   1243   1245   1248     1   108.8800464 416.726400
   1244   1243   1245     1   117.6800502 383.254400
   1245   1247   1249     1   109.5600471 388.275200
   1245   1247   1250     1   109.5600471 388.275200
   1246   1245   1247     1   109.5600471 388.275200
   1246   1245   1248     1   108.4600466 328.025600
   1247   1245   1248     1   109.5600471 388.275200
   1247   1251   1316     1   110.1100470 384.091200
   1249   1247   1251     1   107.9000462 406.684800
   1249   1247   1250     1   108.4600466 328.025600
   1250   1247   1251     1   107.9000462 406.684800
   1251   1252   1261     1   107.9000462 406.684800
   1251   1252   1262     1   107.9000462 406.684800
   1251   1253   1254     1   107.9000462 406.684800
   1251   1253   1256     1   107.9000462 406.684800
   1252   1251   1316     1   110.1100470 384.091200
   1252   1263   1264     1   109.8000471 387.438400
   1252   1263   1265     1   109.8000471 387.438400
   1253   1251   1316     1   110.1100470 384.091200
   1253   1255   1257     1   109.8000471 387.438400
   1253   1255   1258     1   109.8000471 387.438400
   1254   1253   1255     1   109.5600471 388.275200
   1254   1253   1256     1   108.4600466 328.025600
   1255   1253   1256     1   109.5600471 388.275200
   1257   1255   1259     1   108.7700466 392.459200
   1257   1255   1258     1   107.5800459 329.699200
   1258   1255   1259     1   108.7700466 392.459200
   1259   1291   1281     1   119.3800509 410.868800
   1261   1252   1263     1   109.5600471 388.275200
   1261   1252   1262     1   108.4600466 328.025600
   1262   1252   1263     1   109.5600471 388.275200
   1264   1263   1266     1   108.7700466 392.459200
   1264   1263   1265     1   107.5800459 329.699200
   1265   1263   1266     1   108.7700466 392.459200
   1266   1315   1305     1   119.3800509 410.868800
   1268   1269   1288     1   109.5600471 388.275200
   1268   1279   1282     1   109.5600471 388.275200
   1268   1279   1283     1   109.5600471 388.275200
   1269   1268   1270     1   109.5600471 388.275200
   1269   1271   1275     1   109.5600471 388.275200
   1269   1289   1290     1   107.2600461 396.643200
   1270   1268   1279     1   109.5600471 388.275200
   1270   1268   1286     1   109.7800468 425.094400
   1271   1269   1288     1   109.5600471 388.275200
   1271   1272   1274     1   109.5600471 388.275200
   1271   1278   1280     1   107.2600461 396.643200
   1272   1271   1275     1   109.5600471 388.275200
   1272   1273   1276     1   110.2200475 386.601600
   1272   1291   1281     1   109.2900470 396.643200
   1273   1272   1274     1   109.5600471 388.275200
   1273   1277   1287     1   107.2600461 396.643200
   1274   1272   1291     1   109.8800469 414.216000
   1275   1271   1278     1   110.2600474 425.931200
   1276   1273   1277     1   109.4300470 427.604800
   1276   1273   1286     1   109.5800467 425.931200
   1279   1284   1285     1   107.2600461 396.643200
   1282   1279   1284     1   110.2600474 425.931200
   1282   1279   1283     1   108.4600466 328.025600
   1283   1279   1284     1   110.2600474 425.931200
   1288   1269   1289     1   110.2600474 425.931200
   1292   1293   1312     1   109.5600471 388.275200
   1292   1303   1306     1   109.5600471 388.275200
   1292   1303   1307     1   109.5600471 388.275200
   1293   1292   1294     1   109.5600471 388.275200
   1293   1295   1299     1   109.5600471 388.275200
   1293   1313   1314     1   107.2600461 396.643200
   1294   1292   1303     1   109.5600471 388.275200
   1294   1292   1310     1   109.7800468 425.094400
   1295   1293   1312     1   109.5600471 388.275200
   1295   1296   1298     1   109.5600471 388.275200
   1295   1302   1304     1   107.2600461 396.643200
   1296   1295   1299     1   109.5600471 388.275200
   1296   1297   1300     1   110.2200475 386.601600
   1296   1315   1305     1   109.2900470 396.643200
   1297   1296   1298     1   109.5600471 388.275200
   1297   1301   1311     1   107.2600461 396.643200
   1298   1296   1315     1   109.8800469 414.216000
   1299   1295   1302     1   110.2600474 425.931200
   1300   1297   1301     1   109.4300470 427.604800
   1300   1297   1310     1   109.5800467 425.931200
   1303   1308   1309     1   107.2600461 396.643200
   1306   1303   1308     1   110.2600474 425.931200
   1306   1303   1307     1   108.4600466 328.025600
   1307   1303   1308     1   110.2600474 425.931200
   1312   1293   1313     1   110.2600474 425.931200
   1317   1319   1320     1   108.8800464 416.726400
   1317   1319   1322     1   108.8800464 416.726400
   1318   1317   1319     1   117.6800502 383.254400
   1319   1321   1323     1   109.5600471 388.275200
   1319   1321   1324     1   109.5600471 388.275200
   1320   1319   1321     1   109.5600471 388.275200
   1320   1319   1322     1   108.4600466 328.025600
   1321   1325   1390     1   110.1100470 384.091200
   1321   1319   1322     1   109.5600471 388.275200
   1323   1321   1325     1   107.9000462 406.684800
   1323   1321   1324     1   108.4600466 328.025600
   1324   1321   1325     1   107.9000462 406.684800
   1325   1326   1335     1   107.9000462 406.684800
   1325   1326   1336     1   107.9000462 406.684800
   1325   1327   1328     1   107.9000462 406.684800
   1325   1327   1330     1   107.9000462 406.684800
   1326   1337   1338     1   109.8000471 387.438400
   1326   1337   1339     1   109.8000471 387.438400
   1326   1325   1390     1   110.1100470 384.091200
   1327   1329   1331     1   109.8000471 387.438400
   1327   1329   1332     1   109.8000471 387.438400
   1327   1325   1390     1   110.1100470 384.091200
   1328   1327   1329     1   109.5600471 388.275200
   1328   1327   1330     1   108.4600466 328.025600
   1329   1327   1330     1   109.5600471 388.275200
   1331   1329   1333     1   108.7700466 392.459200
   1331   1329   1332     1   107.5800459 329.699200
   1332   1329   1333     1   108.7700466 392.459200
   1333   1365   1355     1   119.3800509 410.868800
   1335   1326   1337     1   109.5600471 388.275200
   1335   1326   1336     1   108.4600466 328.025600
   1336   1326   1337     1   109.5600471 388.275200
   1338   1337   1340     1   108.7700466 392.459200
   1338   1337   1339     1   107.5800459 329.699200
   1339   1337   1340     1   108.7700466 392.459200
   1340   1389   1379     1   119.3800509 410.868800
   1342   1343   1362     1   109.5600471 388.275200
   1342   1353   1356     1   109.5600471 388.275200
   1342   1353   1357     1   109.5600471 388.275200
   1343   1345   1349     1   109.5600471 388.275200
   1343   1363   1364     1   107.2600461 396.643200
   1343   1342   1344     1   109.5600471 388.275200
   1344   1342   1353     1   109.5600471 388.275200
   1344   1342   1360     1   109.7800468 425.094400
   1345   1346   1348     1   109.5600471 388.275200
   1345   1352   1354     1   107.2600461 396.643200
   1345   1343   1362     1   109.5600471 388.275200
   1346   1347   1350     1   110.2200475 386.601600
   1346   1365   1355     1   109.2900470 396.643200
   1346   1345   1349     1   109.5600471 388.275200
   1347   1351   1361     1   107.2600461 396.643200
   1347   1346   1348     1   109.5600471 388.275200
   1348   1346   1365     1   109.8800469 414.216000
   1349   1345   1352     1   110.2600474 425.931200
   1350   1347   1351     1   109.4300470 427.604800
   1350   1347   1360     1   109.5800467 425.931200
   1353   1358   1359     1   107.2600461 396.643200
   1356   1353   1358     1   110.2600474 425.931200
   1356   1353   1357     1   108.4600466 328.025600
   1357   1353   1358     1   110.2600474 425.931200
   1362   1343   1363     1   110.2600474 425.931200
   1366   1367   1386     1   109.5600471 388.275200
   1366   1377   1380     1   109.5600471 388.275200
   1366   1377   1381     1   109.5600471 388.275200
   1367   1369   1373     1   109.5600471 388.275200
   1367   1387   1388     1   107.2600461 396.643200
   1367   1366   1368     1   109.5600471 388.275200
   1368   1366   1377     1   109.5600471 388.275200
   1368   1366   1384     1   109.7800468 425.094400
   1369   1370   1372     1   109.5600471 388.275200
   1369   1376   1378     1   107.2600461 396.643200
   1369   1367   1386     1   109.5600471 388.275200
   1370   1371   1374     1   110.2200475 386.601600
   1370   1389   1379     1   109.2900470 396.643200
   1370   1369   1373     1   109.5600471 388.275200
   1371   1375   1385     1   107.2600461 396.643200
   1371   1370   1372     1   109.5600471 388.275200
   1372   1370   1389     1   109.8800469 414.216000
   1373   1369   1376     1   110.2600474 425.931200
   1374   1371   1375     1   109.4300470 427.604800
   1374   1371   1384     1   109.5800467 425.931200
   1377   1382   1383     1   107.2600461 396.643200
   1380   1377   1382     1   110.2600474 425.931200
   1380   1377   1381     1   108.4600466 328.025600
   1381   1377   1382     1   110.2600474 425.931200
   1386   1367   1387     1   110.2600474 425.931200
   1391   1393   1394     1   108.8800464 416.726400
   1391   1393   1396     1   108.8800464 416.726400
   1392   1391   1393     1   117.6800502 383.254400
   1393   1395   1397     1   109.5600471 388.275200
   1393   1395   1398     1   109.5600471 388.275200
   1394   1393   1395     1   109.5600471 388.275200
   1394   1393   1396     1   108.4600466 328.025600
   1395   1393   1396     1   109.5600471 388.275200
   1395   1399   1464     1   110.1100470 384.091200
   1397   1395   1399     1   107.9000462 406.684800
   1397   1395   1398     1   108.4600466 328.025600
   1398   1395   1399     1   107.9000462 406.684800
   1399   1400   1409     1   107.9000462 406.684800
   1399   1400   1410     1   107.9000462 406.684800
   1399   1401   1402     1   107.9000462 406.684800
   1399   1401   1404     1   107.9000462 406.684800
   1400   1399   1464     1   110.1100470 384.091200
   1400   1411   1412     1   109.8000471 387.438400
   1400   1411   1413     1   109.8000471 387.438400
   1401   1399   1464     1   110.1100470 384.091200
   1401   1403   1405     1   109.8000471 387.438400
   1401   1403   1406     1   109.8000471 387.438400
   1402   1401   1403     1   109.5600471 388.275200
   1402   1401   1404     1   108.4600466 328.025600
   1403   1401   1404     1   109.5600471 388.275200
   1405   1403   1407     1   108.7700466 392.459200
   1405   1403   1406     1   107.5800459 329.699200
   1406   1403   1407     1   108.7700466 392.459200
   1407   1439   1429     1   119.3800509 410.868800
   1409   1400   1411     1   109.5600471 388.275200
   1409   1400   1410     1   108.4600466 328.025600
   1410   1400   1411     1   109.5600471 388.275200
   1412   1411   1414     1   108.7700466 392.459200
   1412   1411   1413     1   107.5800459 329.699200
   1413   1411   1414     1   108.7700466 392.459200
   1414   1463   1453     1   119.3800509 410.868800
   1416   1417   1436     1   109.5600471 388.275200
   1416   1427   1430     1   109.5600471 388.275200
   1416   1427   1431     1   109.5600471 388.275200
   1417   1416   1418     1   109.5600471 388.275200
   1417   1419   1423     1   109.5600471 388.275200
   1417   1437   1438     1   107.2600461 396.643200
   1418   1416   1427     1   109.5600471 388.275200
   1418   1416   1434     1   109.7800468 425.094400
   1419   1417   1436     1   109.5600471 388.275200
   1419   1420   1422     1   109.5600471 388.275200
   1419   1426   1428     1   107.2600461 396.643200
   1420   1419   1423     1   109.5600471 388.275200
   1420   1421   1424     1   110.2200475 386.601600
   1420   1439   1429     1   109.2900470 396.643200
   1421   1420   1422     1   109.5600471 388.275200
   1421   1425   1435     1   107.2600461 396.643200
   1422   1420   1439     1   109.8800469 414.216000
   1423   1419   1426     1   110.2600474 425.931200
   1424   1421   1425     1   109.4300470 427.604800
   1424   1421   1434     1   109.5800467 425.931200
   1427   1432   1433     1   107.2600461 396.643200
   1430   1427   1432     1   110.2600474 425.931200
   1430   1427   1431     1   108.4600466 328.025600
   1431   1427   1432     1   110.2600474 425.931200
   1436   1417   1437     1   110.2600474 425.931200
   1440   1441   1460     1   109.5600471 388.275200
   1440   1451   1454     1   109.5600471 388.275200
   1440   1451   1455     1   109.5600471 388.275200
   1441   1440   1442     1   109.5600471 388.275200
   1441   1443   1447     1   109.5600471 388.275200
   1441   1461   1462     1   107.2600461 396.643200
   1442   1440   1451     1   109.5600471 388.275200
   1442   1440   1458     1   109.7800468 425.094400
   1443   1441   1460     1   109.5600471 388.275200
   1443   1444   1446     1   109.5600471 388.275200
   1443   1450   1452     1   107.2600461 396.643200
   1444   1443   1447     1   109.5600471 388.275200
   1444   1445   1448     1   110.2200475 386.601600
   1444   1463   1453     1   109.2900470 396.643200
   1445   1444   1446     1   109.5600471 388.275200
   1445   1449   1459     1   107.2600461 396.643200
   1446   1444   1463     1   109.8800469 414.216000
   1447   1443   1450     1   110.2600474 425.931200
   1448   1445   1449     1   109.4300470 427.604800
   1448   1445   1458     1   109.5800467 425.931200
   1451   1456   1457     1   107.2600461 396.643200
   1454   1451   1456     1   110.2600474 425.931200
   1454   1451   1455     1   108.4600466 328.025600
   1455   1451   1456     1   110.2600474 425.931200
   1460   1441   1461     1   110.2600474 425.931200
   1465   1467   1468     1   108.8800464 416.726400
   1465   1467   1470     1   108.8800464 416.726400
   1466   1465   1467     1   117.6800502 383.254400
   1467   1469   1471     1   109.5600471 388.275200
   1467   1469   1472     1   109.5600471 388.275200
   1468   1467   1469     1   109.5600471 388.275200
   1468   1467   1470     1   108.4600466 328.025600
   1469   1473   1538     1   110.1100470 384.091200
   1469   1467   1470     1   109.5600471 388.275200
   1471   1469   1473     1   107.9000462 406.684800
   1471   1469   1472     1   108.4600466 328.025600
   1472   1469   1473     1   107.9000462 406.684800
   1473   1474   1483     1   107.9000462 406.684800
   1473   1474   1484     1   107.9000462 406.684800
   1473   1475   1476     1   107.9000462 406.684800
   1473   1475   1478     1   107.9000462 406.684800
   1474   1485   1486     1   109.8000471 387.438400
   1474   1485   1487     1   109.8000471 387.438400
   1474   1473   1538     1   110.1100470 384.091200
   1475   1477   1479     1   109.8000471 387.438400
   1475   1477   1480     1   109.8000471 387.438400
   1475   1473   1538     1   110.1100470 384.091200
   1476   1475   1477     1   109.5600471 388.275200
   1476   1475   1478     1   108.4600466 328.025600
   1477   1475   1478     1   109.5600471 388.275200
   1479   1477   1481     1   108.7700466 392.459200
   1479   1477   1480     1   107.5800459 329.699200
   1480   1477   1481     1   108.7700466 392.459200
   1481   1513   1503     1   119.3800509 410.868800
   1483   1474   1485     1   109.5600471 388.275200
   1483   1474   1484     1   108.4600466 328.025600
   1484   1474   1485     1   109.5600471 388.275200
   1486   1485   1488     1   108.7700466 392.459200
   1486   1485   1487     1   107.5800459 329.699200
   1487   1485   1488     1   108.7700466 392.459200
   1488   1537   1527     1   119.3800509 410.868800
   1490   1491   1510     1   109.5600471 388.275200
   1490   1501   1504     1   109.5600471 388.275200
   1490   1501   1505     1   109.5600471 388.275200
   1491   1493   1497     1   109.5600471 388.275200
   1491   1511   1512     1   107.2600461 396.643200
   1491   1490   1492     1   109.5600471 388.275200
   1492   1490   1501     1   109.5600471 388.275200
   1492   1490   1508     1   109.7800468 425.094400
   1493   1494   1496     1   109.5600471 388.275200
   1493   1500   1502     1   107.2600461 396.643200
   1493   1491   1510     1   109.5600471 388.275200
   1494   1495   1498     1   110.2200475 386.601600
   1494   1513   1503     1   109.2900470 396.643200
   1494   1493   1497     1   109.5600471 388.275200
   1495   1499   1509     1   107.2600461 396.643200
   1495   1494   1496     1   109.5600471 388.275200
   1496   1494   1513     1   109.8800469 414.216000
   1497   1493   1500     1   110.2600474 425.931200
   1498   1495   1499     1   109.4300470 427.604800
   1498   1495   1508     1   109.5800467 425.931200
   1501   1506   1507     1   107.2600461 396.643200
   1504   1501   1506     1   110.2600474 425.931200
   1504   1501   1505     1   108.4600466 328.025600
   1505   1501   1506     1   110.2600474 425.931200
   1510   1491   1511     1   110.2600474 425.931200
   1514   1515   1534     1   109.5600471 388.275200
   1514   1525   1528     1   109.5600471 388.275200
   1514   1525   1529     1   109.5600471 388.275200
   1515   1517   1521     1   109.5600471 388.275200
   1515   1535   1536     1   107.2600461 396.643200
   1515   1514   1516     1   109.5600471 388.275200
   1516   1514   1525     1   109.5600471 388.275200
   1516   1514   1532     1   109.7800468 425.094400
   1517   1518   1520     1   109.5600471 388.275200
   1517   1524   1526     1   107.2600461 396.643200
   1517   1515   1534     1   109.5600471 388.275200
   1518   1519   1522     1   110.2200475 386.601600
   1518   1537   1527     1   109.2900470 396.643200
   1518   1517   1521     1   109.5600471 388.275200
   1519   1523   1533     1   107.2600461 396.643200
   1519   1518   1520     1   109.5600471 388.275200
   1520   1518   1537     1   109.8800469 414.216000
   1521   1517   1524     1   110.2600474 425.931200
   1522   1519   1523     1   109.4300470 427.604800
   1522   1519   1532     1   109.5800467 425.931200
   1525   1530   1531     1   107.2600461 396.643200
   1528   1525   1530     1   110.2600474 425.931200
   1528   1525   1529     1   108.4600466 328.025600
   1529   1525   1530     1   110.2600474 425.931200
   1534   1515   1535     1   110.2600474 425.931200

[ dihedrals ]
;    ai     aj     ak     al funct         c0         c1         c2         c3         c4         c5
      1      2      3      4     1  0.0000000  0.6508444  3
      1      7     13     14     1  0.0000000  0.6508444  3
      1      8     15     16     1  0.0000000  0.6508444  3
      2      1      7     13     1  0.0000000  0.6508444  3
      2      1      8     15     1  0.0000000  0.6508444  3
      2      3      4      5     1  0.0000000  0.6508444  3
      2      3      4      6     1  0.0000000  0.6508444  3
      7      1      2      3     1  0.0000000  0.6508444  3
      8      1      2      3     1  0.0000000  0.6508444  3
      3      4      5     11     1  0.0000000  0.6508444  3
      3      4      6      9     1  0.0000000  0.6508444  3
      4      5     11     12     1  0.0000000  0.6508444  3
      4      6      9     10     1  0.0000000  0.6508444  3
      5      4      6      9     1  0.0000000  0.6508444  3
      5     11     12     17     1  180.0000771  0.0000000  2
      5     11     12     78     1  0.0000000  0.2928800  2
      5     11     12     78     1  0.0000000  0.4184000  4
      6      4      5     11     1  0.0000000  0.6508444  3
      6      9     10     18     1  180.0000771  0.0000000  2
      6      9     10     52     1  0.0000000  0.2928800  2
      6      9     10     52     1  0.0000000  0.4184000  4
      7      1      8     15     1  0.0000000  0.6508444  3
      7     13     14     20     1  180.0000771  0.0000000  2
      7     13     14    104     1  0.0000000  0.2928800  2
      7     13     14    104     1  0.0000000  0.4184000  4
      8      1      7     13     1  0.0000000  0.6508444  3
      8     15     16     19     1  180.0000771  0.0000000  2
      8     15     16    130     1  0.0000000  0.2928800  2
      8     15     16    130     1  0.0000000  0.4184000  4
      9     10     52     51     1  180.0000771  6.2760000  1
      9     10     52     51     1  0.0000000  0.0000000  2
     10     52     51     50     1  0.0000000  2.2175200  1
     10     52     51     50     1  0.0000000  0.0000000  2
     10     52     51     50     1  180.0000771  0.6276000  3
     10     52     51     50     1  180.0000771  2.0920000  4
     11     12     78     77     1  180.0000771  6.2760000  1
     11     12     78     77     1  0.0000000  0.0000000  2
     12     78     77     76     1  0.0000000  2.2175200  1
     12     78     77     76     1  0.0000000  0.0000000  2
     12     78     77     76     1  180.0000771  0.6276000  3
     12     78     77     76     1  180.0000771  2.0920000  4
     13     14    104    103     1  180.0000771  6.2760000  1
     13     14    104    103     1  0.0000000  0.0000000  2
     14    104    103    102     1  0.0000000  2.2175200  1
     14    104    103    102     1  0.0000000  0.0000000  2
     14    104    103    102     1  180.0000771  0.6276000  3
     14    104    103    102     1  180.0000771  2.0920000  4
     15     16    130    129     1  180.0000771  6.2760000  1
     15     16    130    129     1  0.0000000  0.0000000  2
     16    130    129    128     1  0.0000000  2.2175200  1
     16    130    129    128     1  0.0000000  0.0000000  2
     16    130    129    128     1  180.0000771  0.6276000  3
     16    130    129    128     1  180.0000771  2.0920000  4
     17     12     78     77     1  180.0000771  10.4600000  2
     18     10     52     51     1  180.0000771  10.4600000  2
     19     16    130    129     1  180.0000771  10.4600000  2
     20     14    104    103     1  180.0000771  10.4600000  2
     43     44     46     47     1  0.0000000  0.6508444  3
     43     45     48     49     1  0.0000000  0.6508444  3
     43     50     51     52     1  0.0000000  0.6508444  3
     44     43     45     48     1  0.0000000  0.6508444  3
     44     43     50     51     1  0.0000000  0.6508444  3
     44     46     47     53     1  180.0000771  0.0000000  2
     44     46     47    156     1  0.0000000  0.2928800  2
     44     46     47    156     1  0.0000000  0.4184000  4
     45     43     44     46     1  0.0000000  0.6508444  3
     45     43     50     51     1  0.0000000  0.6508444  3
     45     48     49     54     1  180.0000771  0.0000000  2
     45     48     49    182     1  0.0000000  0.2928800  2
     45     48     49    182     1  0.0000000  0.4184000  4
     46     44     43     50     1  0.0000000  0.6508444  3
     46     47    156    155     1  180.0000771  6.2760000  1
     46     47    156    155     1  0.0000000  0.0000000  2
     47    156    155    154     1  0.0000000  2.2175200  1
     47    156    155    154     1  0.0000000  0.0000000  2
     47    156    155    154     1  180.0000771  0.6276000  3
     47    156    155    154     1  180.0000771  2.0920000  4
     48     45     43     50     1  0.0000000  0.6508444  3
     48     49    182    181     1  180.0000771  6.2760000  1
     48     49    182    181     1  0.0000000  0.0000000  2
     49    182    181    180     1  0.0000000  2.2175200  1
     49    182    181    180     1  0.0000000  0.0000000  2
     49    182    181    180     1  180.0000771  0.6276000  3
     49    182    181    180     1  180.0000771  2.0920000  4
     53     47    156    155     1  180.0000771  10.4600000  2
     54     49    182    181     1  180.0000771  10.4600000  2
     69     70     72     73     1  0.0000000  0.6508444  3
     69     71     74     75     1  0.0000000  0.6508444  3
     69     76     77     78     1  0.0000000  0.6508444  3
     70     69     71     74     1  0.0000000  0.6508444  3
     70     69     76     77     1  0.0000000  0.6508444  3
     70     72     73     79     1  180.0000771  0.0000000  2
     70     72     73    208     1  0.0000000  0.2928800  2
     70     72     73    208     1  0.0000000  0.4184000  4
     71     69     70     72     1  0.0000000  0.6508444  3
     71     69     76     77     1  0.0000000  0.6508444  3
     71     74     75     80     1  180.0000771  0.0000000  2
     71     74     75    234     1  0.0000000  0.2928800  2
     71     74     75    234     1  0.0000000  0.4184000  4
     72     70     69     76     1  0.0000000  0.6508444  3
     72     73    208    207     1  180.0000771  6.2760000  1
     72     73    208    207     1  0.0000000  0.0000000  2
     73    208    207    206     1  0.0000000  2.2175200  1
     73    208    207    206     1  0.0000000  0.0000000  2
     73    208    207    206     1  180.0000771  0.6276000  3
     73    208    207    206     1  180.0000771  2.0920000  4
     74     71     69     76     1  0.0000000  0.6508444  3
     74     75    234    233     1  180.0000771  6.2760000  1
     74     75    234    233     1  0.0000000  0.0000000  2
     75    234    233    232     1  0.0000000  2.2175200  1
     75    234    233    232     1  0.0000000  0.0000000  2
     75    234    233    232     1  180.0000771  0.6276000  3
     75    234    233    232     1  180.0000771  2.0920000  4
     79     73    208    207     1  180.0000771  10.4600000  2
     80     75    234    233     1  180.0000771  10.4600000  2
     95     96     98     99     1  0.0000000  0.6508444  3
     95     97    100    101     1  0.0000000  0.6508444  3
     95    102    103    104     1  0.0000000  0.6508444  3
     96     95     97    100     1  0.0000000  0.6508444  3
     96     95    102    103     1  0.0000000  0.6508444  3
     96     98     99    105     1  180.0000771  0.0000000  2
     96     98     99    260     1  0.0000000  0.2928800  2
     96     98     99    260     1  0.0000000  0.4184000  4
     97     95     96     98     1  0.0000000  0.6508444  3
     97     95    102    103     1  0.0000000  0.6508444  3
     97    100    101    106     1  180.0000771  0.0000000  2
     97    100    101    286     1  0.0000000  0.2928800  2
     97    100    101    286     1  0.0000000  0.4184000  4
     98     96     95    102     1  0.0000000  0.6508444  3
     98     99    260    259     1  180.0000771  6.2760000  1
     98     99    260    259     1  0.0000000  0.0000000  2
     99    260    259    258     1  0.0000000  2.2175200  1
     99    260    259    258     1  0.0000000  0.0000000  2
     99    260    259    258     1  180.0000771  0.6276000  3
     99    260    259    258     1  180.0000771  2.0920000  4
    100     97     95    102     1  0.0000000  0.6508444  3
    100    101    286    285     1  180.0000771  6.2760000  1
    100    101    286    285     1  0.0000000  0.0000000  2
    101    286    285    284     1  0.0000000  2.2175200  1
    101    286    285    284     1  0.0000000  0.0000000  2
    101    286    285    284     1  180.0000771  0.6276000  3
    101    286    285    284     1  180.0000771  2.0920000  4
    105     99    260    259     1  180.0000771  10.4600000  2
    106    101    286    285     1  180.0000771  10.4600000  2
    121    122    124    125     1  0.0000000  0.6508444  3
    121    123    126    127     1  0.0000000  0.6508444  3
    121    128    129    130     1  0.0000000  0.6508444  3
    122    121    123    126     1  0.0000000  0.6508444  3
    122    121    128    129     1  0.0000000  0.6508444  3
    122    124    125    131     1  180.0000771  0.0000000  2
    122    124    125    312     1  0.0000000  0.2928800  2
    122    124    125    312     1  0.0000000  0.4184000  4
    123    121    122    124     1  0.0000000  0.6508444  3
    123    121    128    129     1  0.0000000  0.6508444  3
    123    126    127    132     1  180.0000771  0.0000000  2
    123    126    127    338     1  0.0000000  0.2928800  2
    123    126    127    338     1  0.0000000  0.4184000  4
    124    122    121    128     1  0.0000000  0.6508444  3
    124    125    312    311     1  180.0000771  6.2760000  1
    124    125    312    311     1  0.0000000  0.0000000  2
    125    312    311    310     1  0.0000000  2.2175200  1
    125    312    311    310     1  0.0000000  0.0000000  2
    125    312    311    310     1  180.0000771  0.6276000  3
    125    312    311    310     1  180.0000771  2.0920000  4
    126    123    121    128     1  0.0000000  0.6508444  3
    126    127    338    337     1  180.0000771  6.2760000  1
    126    127    338    337     1  0.0000000  0.0000000  2
    127    338    337    336     1  0.0000000  2.2175200  1
    127    338    337    336     1  0.0000000  0.0000000  2
    127    338    337    336     1  180.0000771  0.6276000  3
    127    338    337    336     1  180.0000771  2.0920000  4
    131    125    312    311     1  180.0000771  10.4600000  2
    132    127    338    337     1  180.0000771  10.4600000  2
    147    148    150    151     1  0.0000000  0.6508444  3
    147    149    152    153     1  0.0000000  0.6508444  3
    147    154    155    156     1  0.0000000  0.6508444  3
    148    147    149    152     1  0.0000000  0.6508444  3
    148    147    154    155     1  0.0000000  0.6508444  3
    148    150    151    355     1  0.0000000  0.2928800  2
    148    150    151    355     1  0.0000000  0.4184000  4
    148    150    151    157     1  180.0000771  0.0000000  2
    149    147    148    150     1  0.0000000  0.6508444  3
    149    147    154    155     1  0.0000000  0.6508444  3
    149    152    153    158     1  180.0000771  0.0000000  2
    149    152    153    429     1  0.0000000  0.2928800  2
    149    152    153    429     1  0.0000000  0.4184000  4
    150    148    147    154     1  0.0000000  0.6508444  3
    150    151    355    357     1  180.0000771  6.2760000  1
    150    151    355    357     1  0.0000000  0.0000000  2
    151    355    357    359     1  0.0000000  2.2175200  1
    151    355    357    359     1  0.0000000  0.0000000  2
    151    355    357    359     1  180.0000771  0.6276000  3
    151    355    357    359     1  180.0000771  2.0920000  4
    152    149    147    154     1  0.0000000  0.6508444  3
    152    153    429    431     1  180.0000771  6.2760000  1
    152    153    429    431     1  0.0000000  0.0000000  2
    153    429    431    433     1  0.0000000  2.2175200  1
    153    429    431    433     1  0.0000000  0.0000000  2
    153    429    431    433     1  180.0000771  0.6276000  3
    153    429    431    433     1  180.0000771  2.0920000  4
    157    151    355    357     1  180.0000771  10.4600000  2
    158    153    429    431     1  180.0000771  10.4600000  2
    173    174    176    177     1  0.0000000  0.6508444  3
    173    175    178    179     1  0.0000000  0.6508444  3
    173    180    181    182     1  0.0000000  0.6508444  3
    174    173    175    178     1  0.0000000  0.6508444  3
    174    173    180    181     1  0.0000000  0.6508444  3
    174    176    177    503     1  0.0000000  0.2928800  2
    174    176    177    503     1  0.0000000  0.4184000  4
    174    176    177    183     1  180.0000771  0.0000000  2
    175    173    174    176     1  0.0000000  0.6508444  3
    175    173    180    181     1  0.0000000  0.6508444  3
    175    178    179    184     1  180.0000771  0.0000000  2
    175    178    179    577     1  0.0000000  0.2928800  2
    175    178    179    577     1  0.0000000  0.4184000  4
    176    174    173    180     1  0.0000000  0.6508444  3
    176    177    503    505     1  180.0000771  6.2760000  1
    176    177    503    505     1  0.0000000  0.0000000  2
    177    503    505    507     1  0.0000000  2.2175200  1
    177    503    505    507     1  0.0000000  0.0000000  2
    177    503    505    507     1  180.0000771  0.6276000  3
    177    503    505    507     1  180.0000771  2.0920000  4
    178    175    173    180     1  0.0000000  0.6508444  3
    178    179    577    579     1  180.0000771  6.2760000  1
    178    179    577    579     1  0.0000000  0.0000000  2
    179    577    579    581     1  0.0000000  2.2175200  1
    179    577    579    581     1  0.0000000  0.0000000  2
    179    577    579    581     1  180.0000771  0.6276000  3
    179    577    579    581     1  180.0000771  2.0920000  4
    183    177    503    505     1  180.0000771  10.4600000  2
    184    179    577    579     1  180.0000771  10.4600000  2
    199    200    202    203     1  0.0000000  0.6508444  3
    199    201    204    205     1  0.0000000  0.6508444  3
    199    206    207    208     1  0.0000000  0.6508444  3
    200    199    201    204     1  0.0000000  0.6508444  3
    200    199    206    207     1  0.0000000  0.6508444  3
    200    202    203    651     1  0.0000000  0.2928800  2
    200    202    203    651     1  0.0000000  0.4184000  4
    200    202    203    209     1  180.0000771  0.0000000  2
    201    199    200    202     1  0.0000000  0.6508444  3
    201    199    206    207     1  0.0000000  0.6508444  3
    201    204    205    210     1  180.0000771  0.0000000  2
    201    204    205    725     1  0.0000000  0.2928800  2
    201    204    205    725     1  0.0000000  0.4184000  4
    202    200    199    206     1  0.0000000  0.6508444  3
    202    203    651    653     1  180.0000771  6.2760000  1
    202    203    651    653     1  0.0000000  0.0000000  2
    203    651    653    655     1  0.0000000  2.2175200  1
    203    651    653    655     1  0.0000000  0.0000000  2
    203    651    653    655     1  180.0000771  0.6276000  3
    203    651    653    655     1  180.0000771  2.0920000  4
    204    201    199    206     1  0.0000000  0.6508444  3
    204    205    725    727     1  180.0000771  6.2760000  1
    204    205    725    727     1  0.0000000  0.0000000  2
    205    725    727    729     1  0.0000000  2.2175200  1
    205    725    727    729     1  0.0000000  0.0000000  2
    205    725    727    729     1  180.0000771  0.6276000  3
    205    725    727    729     1  180.0000771  2.0920000  4
    209    203    651    653     1  180.0000771  10.4600000  2
    210    205    725    727     1  180.0000771  10.4600000  2
    225    226    228    229     1  0.0000000  0.6508444  3
    225    227    230    231     1  0.0000000  0.6508444  3
    225    232    233    234     1  0.0000000  0.6508444  3
    226    225    227    230     1  0.0000000  0.6508444  3
    226    225    232    233     1  0.0000000  0.6508444  3
    226    228    229    799     1  0.0000000  0.2928800  2
    226    228    229    799     1  0.0000000  0.4184000  4
    226    228    229    235     1  180.0000771  0.0000000  2
    227    225    226    228     1  0.0000000  0.6508444  3
    227    225    232    233     1  0.0000000  0.6508444  3
    227    230    231    236     1  180.0000771  0.0000000  2
    227    230    231    873     1  0.0000000  0.2928800  2
    227    230    231    873     1  0.0000000  0.4184000  4
    228    226    225    232     1  0.0000000  0.6508444  3
    228    229    799    801     1  180.0000771  6.2760000  1
    228    229    799    801     1  0.0000000  0.0000000  2
    229    799    801    803     1  0.0000000  2.2175200  1
    229    799    801    803     1  0.0000000  0.0000000  2
    229    799    801    803     1  180.0000771  0.6276000  3
    229    799    801    803     1  180.0000771  2.0920000  4
    230    227    225    232     1  0.0000000  0.6508444  3
    230    231    873    875     1  180.0000771  6.2760000  1
    230    231    873    875     1  0.0000000  0.0000000  2
    231    873    875    877     1  0.0000000  2.2175200  1
    231    873    875    877     1  0.0000000  0.0000000  2
    231    873    875    877     1  180.0000771  0.6276000  3
    231    873    875    877     1  180.0000771  2.0920000  4
    235    229    799    801     1  180.0000771  10.4600000  2
    236    231    873    875     1  180.0000771  10.4600000  2
    251    252    254    255     1  0.0000000  0.6508444  3
    251    253    256    257     1  0.0000000  0.6508444  3
    251    258    259    260     1  0.0000000  0.6508444  3
    252    251    253    256     1  0.0000000  0.6508444  3
    252    251    258    259     1  0.0000000  0.6508444  3
    252    254    255    947     1  0.0000000  0.2928800  2
    252    254    255    947     1  0.0000000  0.4184000  4
    252    254    255    261     1  180.0000771  0.0000000  2
    253    251    252    254     1  0.0000000  0.6508444  3
    253    251    258    259     1  0.0000000  0.6508444  3
    253    256    257    262     1  180.0000771  0.0000000  2
    253    256    257   1021     1  0.0000000  0.2928800  2
    253    256    257   1021     1  0.0000000  0.4184000  4
    254    252    251    258     1  0.0000000  0.6508444  3
    254    255    947    949     1  180.0000771  6.2760000  1
    254    255    947    949     1  0.0000000  0.0000000  2
    255    947    949    951     1  0.0000000  2.2175200  1
    255    947    949    951     1  0.0000000  0.0000000  2
    255    947    949    951     1  180.0000771  0.6276000  3
    255    947    949    951     1  180.0000771  2.0920000  4
    256    253    251    258     1  0.0000000  0.6508444  3
    256    257   1021   1023     1  180.0000771  6.2760000  1
    256    257   1021   1023     1  0.0000000  0.0000000  2
    257   1021   1023   1025     1  0.0000000  2.2175200  1
    257   1021   1023   1025     1  0.0000000  0.0000000  2
    257   1021   1023   1025     1  180.0000771  0.6276000  3
    257   1021   1023   1025     1  180.0000771  2.0920000  4
    261    255    947    949     1  180.0000771  10.4600000  2
    262    257   1021   1023     1  180.0000771  10.4600000  2
    277    278    280    281     1  0.0000000  0.6508444  3
    277    279    282    283     1  0.0000000  0.6508444  3
    277    284    285    286     1  0.0000000  0.6508444  3
    278    277    279    282     1  0.0000000  0.6508444  3
    278    277    284    285     1  0.0000000  0.6508444  3
    278    280    281   1095     1  0.0000000  0.2928800  2
    278    280    281   1095     1  0.0000000  0.4184000  4
    278    280    281    287     1  180.0000771  0.0000000  2
    279    277    278    280     1  0.0000000  0.6508444  3
    279    277    284    285     1  0.0000000  0.6508444  3
    279    282    283    288     1  180.0000771  0.0000000  2
    279    282    283   1169     1  0.0000000  0.2928800  2
    279    282    283   1169     1  0.0000000  0.4184000  4
    280    278    277    284     1  0.0000000  0.6508444  3
    280    281   1095   1097     1  180.0000771  6.2760000  1
    280    281   1095   1097     1  0.0000000  0.0000000  2
    281   1095   1097   1099     1  0.0000000  2.2175200  1
    281   1095   1097   1099     1  0.0000000  0.0000000  2
    281   1095   1097   1099     1  180.0000771  0.6276000  3
    281   1095   1097   1099     1  180.0000771  2.0920000  4
    282    279    277    284     1  0.0000000  0.6508444  3
    282    283   1169   1171     1  180.0000771  6.2760000  1
    282    283   1169   1171     1  0.0000000  0.0000000  2
    283   1169   1171   1173     1  0.0000000  2.2175200  1
    283   1169   1171   1173     1  0.0000000  0.0000000  2
    283   1169   1171   1173     1  180.0000771  0.6276000  3
    283   1169   1171   1173     1  180.0000771  2.0920000  4
    287    281   1095   1097     1  180.0000771  10.4600000  2
    288    283   1169   1171     1  180.0000771  10.4600000  2
    303    304    306    307     1  0.0000000  0.6508444  3
    303    305    308    309     1  0.0000000  0.6508444  3
    303    310    311    312     1  0.0000000  0.6508444  3
    304    303    305    308     1  0.0000000  0.6508444  3
    304    303    310    311     1  0.0000000  0.6508444  3
    304    306    307   1243     1  0.0000000  0.2928800  2
    304    306    307   1243     1  0.0000000  0.4184000  4
    304    306    307    313     1  180.0000771  0.0000000  2
    305    303    304    306     1  0.0000000  0.6508444  3
    305    303    310    311     1  0.0000000  0.6508444  3
    305    308    309    314     1  180.0000771  0.0000000  2
    305    308    309   1317     1  0.0000000  0.2928800  2
    305    308    309   1317     1  0.0000000  0.4184000  4
    306    304    303    310     1  0.0000000  0.6508444  3
    306    307   1243   1245     1  180.0000771  6.2760000  1
    306    307   1243   1245     1  0.0000000  0.0000000  2
    307   1243   1245   1247     1  0.0000000  2.2175200  1
    307   1243   1245   1247     1  0.0000000  0.0000000  2
    307   1243   1245   1247     1  180.0000771  0.6276000  3
    307   1243   1245   1247     1  180.0000771  2.0920000  4
    308    305    303    310     1  0.0000000  0.6508444  3
    308    309   1317   1319     1  180.0000771  6.2760000  1
    308    309   1317   1319     1  0.0000000  0.0000000  2
    309   1317   1319   1321     1  0.0000000  2.2175200  1
    309   1317   1319   1321     1  0.0000000  0.0000000  2
    309   1317   1319   1321     1  180.0000771  0.6276000  3
    309   1317   1319   1321     1  180.0000771  2.0920000  4
    313    307   1243   1245     1  180.0000771  10.4600000  2
    314    309   1317   1319     1  180.0000771  10.4600000  2
    329    330    332    333     1  0.0000000  0.6508444  3
    329    331    334    335     1  0.0000000  0.6508444  3
    329    336    337    338     1  0.0000000  0.6508444  3
    330    329    331    334     1  0.0000000  0.6508444  3
    330    329    336    337     1  0.0000000  0.6508444  3
    330    332    333   1391     1  0.0000000  0.2928800  2
    330    332    333   1391     1  0.0000000  0.4184000  4
    330    332    333    339     1  180.0000771  0.0000000  2
    331    329    330    332     1  0.0000000  0.6508444  3
    331    329    336    337     1  0.0000000  0.6508444  3
    331    334    335   1465     1  0.0000000  0.2928800  2
    331    334    335   1465     1  0.0000000  0.4184000  4
    331    334    335    340     1  180.0000771  0.0000000  2
    332    330    329    336     1  0.0000000  0.6508444  3
    332    333   1391   1393     1  180.0000771  6.2760000  1
    332    333   1391   1393     1  0.0000000  0.0000000  2
    333   1391   1393   1395     1  0.0000000  2.2175200  1
    333   1391   1393   1395     1  0.0000000  0.0000000  2
    333   1391   1393   1395     1  180.0000771  0.6276000  3
    333   1391   1393   1395     1  180.0000771  2.0920000  4
    334    331    329    336     1  0.0000000  0.6508444  3
    334    335   1465   1467     1  180.0000771  6.2760000  1
    334    335   1465   1467     1  0.0000000  0.0000000  2
    335   1465   1467   1469     1  0.0000000  2.2175200  1
    335   1465   1467   1469     1  0.0000000  0.0000000  2
    335   1465   1467   1469     1  180.0000771  0.6276000  3
    335   1465   1467   1469     1  180.0000771  2.0920000  4
    339    333   1391   1393     1  180.0000771  10.4600000  2
    340    335   1465   1467     1  180.0000771  10.4600000  2
    355    357    359    363     1  0.0000000  0.6508444  3
    357    359    363    364     1  0.0000000  0.6508444  3
    357    359    363    365     1  0.0000000  0.6508444  3
    359    363    364    375     1  0.0000000  0.6508444  3
    359    363    365    367     1  0.0000000  0.6508444  3
    363    364    375    378     1  0.0000000  0.6508444  3
    363    365    367    371     1  0.0000000  0.6508444  3
    364    363    365    367     1  0.0000000  0.6508444  3
    364    375    378    379     1  180.0000771  0.0000000  2
    364    375    378    427     1  180.0000771  0.0000000  2
    365    363    364    375     1  0.0000000  0.6508444  3
    365    367    371    372     1  180.0000771  0.0000000  2
    365    367    371    403     1  180.0000771  0.0000000  2
    367    371    403    384     1  180.0000771  6.0668000  2
    367    371    403    384     1  180.0000771  1.4644000  4
    371    403    384    383     1  0.0000000  1.2552000  3
    371    403    384    385     1  0.0000000  1.2552000  3
    372    371    403    384     1  180.0000771  6.0668000  2
    372    371    403    384     1  180.0000771  1.4644000  4
    375    378    427    408     1  180.0000771  6.0668000  2
    375    378    427    408     1  180.0000771  1.4644000  4
    378    427    408    407     1  0.0000000  1.2552000  3
    378    427    408    409     1  0.0000000  1.2552000  3
    379    378    427    408     1  180.0000771  6.0668000  2
    379    378    427    408     1  180.0000771  1.4644000  4
    380    381    383    384     1  180.0000771  0.8368000  1
    380    381    383    384     1  180.0000771  1.0460000  2
    380    381    383    384     1  0.0000000  0.7531200  3
    380    381    383    390     1  0.0000000  0.6508444  3
    380    398    385    384     1  180.0000771  0.4184000  2
    380    398    385    384     1  0.0000000  1.6024720  3
    380    398    385    389     1  0.0000000  1.6038667  3
    381    380    391    396     1  0.0000000  0.6508444  3
    381    380    398    385     1  180.0000771  0.4184000  2
    381    380    398    385     1  0.0000000  1.6024720  3
    381    383    384    385     1  180.0000771  0.8368000  1
    381    383    384    385     1  180.0000771  1.0460000  2
    381    383    384    385     1  0.0000000  0.7531200  3
    381    383    384    403     1  0.0000000  0.6508444  3
    383    381    380    391     1  180.0000771  0.8368000  1
    383    381    380    391     1  180.0000771  1.0460000  2
    383    381    380    391     1  0.0000000  0.7531200  3
    383    381    380    398     1  0.0000000  0.6508444  3
    383    384    385    389     1  0.0000000  0.6508444  3
    383    384    385    398     1  0.0000000  0.6508444  3
    384    383    381    401     1  0.0000000  0.6508444  3
    385    384    383    390     1  0.0000000  0.6508444  3
    385    398    380    391     1  180.0000771  0.4184000  2
    385    398    380    391     1  0.0000000  1.6024720  3
    389    385    384    403     1  0.0000000  0.6508444  3
    390    383    381    401     1  0.0000000  4.9162000  2
    390    383    381    401     1  0.0000000  0.6024960  3
    390    383    384    403     1  0.0000000  0.6508444  3
    391    380    381    401     1  0.0000000  0.6508444  3
    396    391    380    398     1  0.0000000  4.9162000  2
    396    391    380    398     1  0.0000000  0.6024960  3
    398    380    381    401     1  0.0000000  4.9162000  2
    398    380    381    401     1  0.0000000  0.6024960  3
    398    385    384    403     1  0.0000000  0.6508444  3
    404    405    407    408     1  180.0000771  0.8368000  1
    404    405    407    408     1  180.0000771  1.0460000  2
    404    405    407    408     1  0.0000000  0.7531200  3
    404    405    407    414     1  0.0000000  0.6508444  3
    404    422    409    408     1  180.0000771  0.4184000  2
    404    422    409    408     1  0.0000000  1.6024720  3
    404    422    409    413     1  0.0000000  1.6038667  3
    405    404    415    420     1  0.0000000  0.6508444  3
    405    404    422    409     1  180.0000771  0.4184000  2
    405    404    422    409     1  0.0000000  1.6024720  3
    405    407    408    409     1  180.0000771  0.8368000  1
    405    407    408    409     1  180.0000771  1.0460000  2
    405    407    408    409     1  0.0000000  0.7531200  3
    405    407    408    427     1  0.0000000  0.6508444  3
    407    405    404    415     1  180.0000771  0.8368000  1
    407    405    404    415     1  180.0000771  1.0460000  2
    407    405    404    415     1  0.0000000  0.7531200  3
    407    405    404    422     1  0.0000000  0.6508444  3
    407    408    409    413     1  0.0000000  0.6508444  3
    407    408    409    422     1  0.0000000  0.6508444  3
    408    407    405    425     1  0.0000000  0.6508444  3
    409    408    407    414     1  0.0000000  0.6508444  3
    409    422    404    415     1  180.0000771  0.4184000  2
    409    422    404    415     1  0.0000000  1.6024720  3
    413    409    408    427     1  0.0000000  0.6508444  3
    414    407    405    425     1  0.0000000  4.9162000  2
    414    407    405    425     1  0.0000000  0.6024960  3
    414    407    408    427     1  0.0000000  0.6508444  3
    415    404    405    425     1  0.0000000  0.6508444  3
    420    415    404    422     1  0.0000000  4.9162000  2
    420    415    404    422     1  0.0000000  0.6024960  3
    422    404    405    425     1  0.0000000  4.9162000  2
    422    404    405    425     1  0.0000000  0.6024960  3
    422    409    408    427     1  0.0000000  0.6508444  3
    429    431    433    437     1  0.0000000  0.6508444  3
    431    433    437    438     1  0.0000000  0.6508444  3
    431    433    437    439     1  0.0000000  0.6508444  3
    433    437    438    449     1  0.0000000  0.6508444  3
    433    437    439    441     1  0.0000000  0.6508444  3
    437    438    449    452     1  0.0000000  0.6508444  3
    437    439    441    445     1  0.0000000  0.6508444  3
    438    449    452    453     1  180.0000771  0.0000000  2
    438    449    452    501     1  180.0000771  0.0000000  2
    438    437    439    441     1  0.0000000  0.6508444  3
    439    441    445    446     1  180.0000771  0.0000000  2
    439    441    445    477     1  180.0000771  0.0000000  2
    439    437    438    449     1  0.0000000  0.6508444  3
    441    445    477    458     1  180.0000771  6.0668000  2
    441    445    477    458     1  180.0000771  1.4644000  4
    445    477    458    459     1  0.0000000  1.2552000  3
    445    477    458    457     1  0.0000000  1.2552000  3
    446    445    477    458     1  180.0000771  6.0668000  2
    446    445    477    458     1  180.0000771  1.4644000  4
    449    452    501    482     1  180.0000771  6.0668000  2
    449    452    501    482     1  180.0000771  1.4644000  4
    452    501    482    483     1  0.0000000  1.2552000  3
    452    501    482    481     1  0.0000000  1.2552000  3
    453    452    501    482     1  180.0000771  6.0668000  2
    453    452    501    482     1  180.0000771  1.4644000  4
    454    455    457    458     1  180.0000771  0.8368000  1
    454    455    457    458     1  180.0000771  1.0460000  2
    454    455    457    458     1  0.0000000  0.7531200  3
    454    455    457    464     1  0.0000000  0.6508444  3
    454    472    459    463     1  0.0000000  1.6038667  3
    454    472    459    458     1  180.0000771  0.4184000  2
    454    472    459    458     1  0.0000000  1.6024720  3
    455    457    458    459     1  180.0000771  0.8368000  1
    455    457    458    459     1  180.0000771  1.0460000  2
    455    457    458    459     1  0.0000000  0.7531200  3
    455    457    458    477     1  0.0000000  0.6508444  3
    455    454    465    470     1  0.0000000  0.6508444  3
    455    454    472    459     1  180.0000771  0.4184000  2
    455    454    472    459     1  0.0000000  1.6024720  3
    457    458    459    463     1  0.0000000  0.6508444  3
    457    458    459    472     1  0.0000000  0.6508444  3
    457    455    454    465     1  180.0000771  0.8368000  1
    457    455    454    465     1  180.0000771  1.0460000  2
    457    455    454    465     1  0.0000000  0.7531200  3
    457    455    454    472     1  0.0000000  0.6508444  3
    458    457    455    475     1  0.0000000  0.6508444  3
    459    472    454    465     1  180.0000771  0.4184000  2
    459    472    454    465     1  0.0000000  1.6024720  3
    459    458    457    464     1  0.0000000  0.6508444  3
    463    459    458    477     1  0.0000000  0.6508444  3
    464    457    458    477     1  0.0000000  0.6508444  3
    464    457    455    475     1  0.0000000  4.9162000  2
    464    457    455    475     1  0.0000000  0.6024960  3
    465    454    455    475     1  0.0000000  0.6508444  3
    470    465    454    472     1  0.0000000  4.9162000  2
    470    465    454    472     1  0.0000000  0.6024960  3
    472    459    458    477     1  0.0000000  0.6508444  3
    472    454    455    475     1  0.0000000  4.9162000  2
    472    454    455    475     1  0.0000000  0.6024960  3
    478    479    481    482     1  180.0000771  0.8368000  1
    478    479    481    482     1  180.0000771  1.0460000  2
    478    479    481    482     1  0.0000000  0.7531200  3
    478    479    481    488     1  0.0000000  0.6508444  3
    478    496    483    487     1  0.0000000  1.6038667  3
    478    496    483    482     1  180.0000771  0.4184000  2
    478    496    483    482     1  0.0000000  1.6024720  3
    479    481    482    483     1  180.0000771  0.8368000  1
    479    481    482    483     1  180.0000771  1.0460000  2
    479    481    482    483     1  0.0000000  0.7531200  3
    479    481    482    501     1  0.0000000  0.6508444  3
    479    478    489    494     1  0.0000000  0.6508444  3
    479    478    496    483     1  180.0000771  0.4184000  2
    479    478    496    483     1  0.0000000  1.6024720  3
    481    482    483    487     1  0.0000000  0.6508444  3
    481    482    483    496     1  0.0000000  0.6508444  3
    481    479    478    489     1  180.0000771  0.8368000  1
    481    479    478    489     1  180.0000771  1.0460000  2
    481    479    478    489     1  0.0000000  0.7531200  3
    481    479    478    496     1  0.0000000  0.6508444  3
    482    481    479    499     1  0.0000000  0.6508444  3
    483    496    478    489     1  180.0000771  0.4184000  2
    483    496    478    489     1  0.0000000  1.6024720  3
    483    482    481    488     1  0.0000000  0.6508444  3
    487    483    482    501     1  0.0000000  0.6508444  3
    488    481    482    501     1  0.0000000  0.6508444  3
    488    481    479    499     1  0.0000000  4.9162000  2
    488    481    479    499     1  0.0000000  0.6024960  3
    489    478    479    499     1  0.0000000  0.6508444  3
    494    489    478    496     1  0.0000000  4.9162000  2
    494    489    478    496     1  0.0000000  0.6024960  3
    496    483    482    501     1  0.0000000  0.6508444  3
    496    478    479    499     1  0.0000000  4.9162000  2
    496    478    479    499     1  0.0000000  0.6024960  3
    503    505    507    511     1  0.0000000  0.6508444  3
    505    507    511    512     1  0.0000000  0.6508444  3
    505    507    511    513     1  0.0000000  0.6508444  3
    507    511    512    523     1  0.0000000  0.6508444  3
    507    511    513    515     1  0.0000000  0.6508444  3
    511    512    523    526     1  0.0000000  0.6508444  3
    511    513    515    519     1  0.0000000  0.6508444  3
    512    511    513    515     1  0.0000000  0.6508444  3
    512    523    526    527     1  180.0000771  0.0000000  2
    512    523    526    575     1  180.0000771  0.0000000  2
    513    511    512    523     1  0.0000000  0.6508444  3
    513    515    519    520     1  180.0000771  0.0000000  2
    513    515    519    551     1  180.0000771  0.0000000  2
    515    519    551    532     1  180.0000771  6.0668000  2
    515    519    551    532     1  180.0000771  1.4644000  4
    519    551    532    531     1  0.0000000  1.2552000  3
    519    551    532    533     1  0.0000000  1.2552000  3
    520    519    551    532     1  180.0000771  6.0668000  2
    520    519    551    532     1  180.0000771  1.4644000  4
    523    526    575    556     1  180.0000771  6.0668000  2
    523    526    575    556     1  180.0000771  1.4644000  4
    526    575    556    555     1  0.0000000  1.2552000  3
    526    575    556    557     1  0.0000000  1.2552000  3
    527    526    575    556     1  180.0000771  6.0668000  2
    527    526    575    556     1  180.0000771  1.4644000  4
    528    529    531    532     1  180.0000771  0.8368000  1
    528    529    531    532     1  180.0000771  1.0460000  2
    528    529    531    532     1  0.0000000  0.7531200  3
    528    529    531    538     1  0.0000000  0.6508444  3
    528    546    533    532     1  180.0000771  0.4184000  2
    528    546    533    532     1  0.0000000  1.6024720  3
    528    546    533    537     1  0.0000000  1.6038667  3
    529    528    539    544     1  0.0000000  0.6508444  3
    529    528    546    533     1  180.0000771  0.4184000  2
    529    528    546    533     1  0.0000000  1.6024720  3
    529    531    532    533     1  180.0000771  0.8368000  1
    529    531    532    533     1  180.0000771  1.0460000  2
    529    531    532    533     1  0.0000000  0.7531200  3
    529    531    532    551     1  0.0000000  0.6508444  3
    531    529    528    539     1  180.0000771  0.8368000  1
    531    529    528    539     1  180.0000771  1.0460000  2
    531    529    528    539     1  0.0000000  0.7531200  3
    531    529    528    546     1  0.0000000  0.6508444  3
    531    532    533    537     1  0.0000000  0.6508444  3
    531    532    533    546     1  0.0000000  0.6508444  3
    532    531    529    549     1  0.0000000  0.6508444  3
    533    532    531    538     1  0.0000000  0.6508444  3
    533    546    528    539     1  180.0000771  0.4184000  2
    533    546    528    539     1  0.0000000  1.6024720  3
    537    533    532    551     1  0.0000000  0.6508444  3
    538    531    529    549     1  0.0000000  4.9162000  2
    538    531    529    549     1  0.0000000  0.6024960  3
    538    531    532    551     1  0.0000000  0.6508444  3
    539    528    529    549     1  0.0000000  0.6508444  3
    544    539    528    546     1  0.0000000  4.9162000  2
    544    539    528    546     1  0.0000000  0.6024960  3
    546    528    529    549     1  0.0000000  4.9162000  2
    546    528    529    549     1  0.0000000  0.6024960  3
    546    533    532    551     1  0.0000000  0.6508444  3
    552    553    555    556     1  180.0000771  0.8368000  1
    552    553    555    556     1  180.0000771  1.0460000  2
    552    553    555    556     1  0.0000000  0.7531200  3
    552    553    555    562     1  0.0000000  0.6508444  3
    552    570    557    556     1  180.0000771  0.4184000  2
    552    570    557    556     1  0.0000000  1.6024720  3
    552    570    557    561     1  0.0000000  1.6038667  3
    553    552    563    568     1  0.0000000  0.6508444  3
    553    552    570    557     1  180.0000771  0.4184000  2
    553    552    570    557     1  0.0000000  1.6024720  3
    553    555    556    557     1  180.0000771  0.8368000  1
    553    555    556    557     1  180.0000771  1.0460000  2
    553    555    556    557     1  0.0000000  0.7531200  3
    553    555    556    575     1  0.0000000  0.6508444  3
    555    553    552    563     1  180.0000771  0.8368000  1
    555    553    552    563     1  180.0000771  1.0460000  2
    555    553    552    563     1  0.0000000  0.7531200  3
    555    553    552    570     1  0.0000000  0.6508444  3
    555    556    557    561     1  0.0000000  0.6508444  3
    555    556    557    570     1  0.0000000  0.6508444  3
    556    555    553    573     1  0.0000000  0.6508444  3
    557    556    555    562     1  0.0000000  0.6508444  3
    557    570    552    563     1  180.0000771  0.4184000  2
    557    570    552    563     1  0.0000000  1.6024720  3
    561    557    556    575     1  0.0000000  0.6508444  3
    562    555    553    573     1  0.0000000  4.9162000  2
    562    555    553    573     1  0.0000000  0.6024960  3
    562    555    556    575     1  0.0000000  0.6508444  3
    563    552    553    573     1  0.0000000  0.6508444  3
    568    563    552    570     1  0.0000000  4.9162000  2
    568    563    552    570     1  0.0000000  0.6024960  3
    570    552    553    573     1  0.0000000  4.9162000  2
    570    552    553    573     1  0.0000000  0.6024960  3
    570    557    556    575     1  0.0000000  0.6508444  3
    577    579    581    585     1  0.0000000  0.6508444  3
    579    581    585    586     1  0.0000000  0.6508444  3
    579    581    585    587     1  0.0000000  0.6508444  3
    581    585    586    597     1  0.0000000  0.6508444  3
    581    585    587    589     1  0.0000000  0.6508444  3
    585    586    597    600     1  0.0000000  0.6508444  3
    585    587    589    593     1  0.0000000  0.6508444  3
    586    597    600    601     1  180.0000771  0.0000000  2
    586    597    600    649     1  180.0000771  0.0000000  2
    586    585    587    589     1  0.0000000  0.6508444  3
    587    589    593    594     1  180.0000771  0.0000000  2
    587    589    593    625     1  180.0000771  0.0000000  2
    587    585    586    597     1  0.0000000  0.6508444  3
    589    593    625    606     1  180.0000771  6.0668000  2
    589    593    625    606     1  180.0000771  1.4644000  4
    593    625    606    607     1  0.0000000  1.2552000  3
    593    625    606    605     1  0.0000000  1.2552000  3
    594    593    625    606     1  180.0000771  6.0668000  2
    594    593    625    606     1  180.0000771  1.4644000  4
    597    600    649    630     1  180.0000771  6.0668000  2
    597    600    649    630     1  180.0000771  1.4644000  4
    600    649    630    631     1  0.0000000  1.2552000  3
    600    649    630    629     1  0.0000000  1.2552000  3
    601    600    649    630     1  180.0000771  6.0668000  2
    601    600    649    630     1  180.0000771  1.4644000  4
    602    603    605    606     1  180.0000771  0.8368000  1
    602    603    605    606     1  180.0000771  1.0460000  2
    602    603    605    606     1  0.0000000  0.7531200  3
    602    603    605    612     1  0.0000000  0.6508444  3
    602    620    607    611     1  0.0000000  1.6038667  3
    602    620    607    606     1  180.0000771  0.4184000  2
    602    620    607    606     1  0.0000000  1.6024720  3
    603    605    606    607     1  180.0000771  0.8368000  1
    603    605    606    607     1  180.0000771  1.0460000  2
    603    605    606    607     1  0.0000000  0.7531200  3
    603    605    606    625     1  0.0000000  0.6508444  3
    603    602    613    618     1  0.0000000  0.6508444  3
    603    602    620    607     1  180.0000771  0.4184000  2
    603    602    620    607     1  0.0000000  1.6024720  3
    605    606    607    611     1  0.0000000  0.6508444  3
    605    606    607    620     1  0.0000000  0.6508444  3
    605    603    602    613     1  180.0000771  0.8368000  1
    605    603    602    613     1  180.0000771  1.0460000  2
    605    603    602    613     1  0.0000000  0.7531200  3
    605    603    602    620     1  0.0000000  0.6508444  3
    606    605    603    623     1  0.0000000  0.6508444  3
    607    620    602    613     1  180.0000771  0.4184000  2
    607    620    602    613     1  0.0000000  1.6024720  3
    607    606    605    612     1  0.0000000  0.6508444  3
    611    607    606    625     1  0.0000000  0.6508444  3
    612    605    606    625     1  0.0000000  0.6508444  3
    612    605    603    623     1  0.0000000  4.9162000  2
    612    605    603    623     1  0.0000000  0.6024960  3
    613    602    603    623     1  0.0000000  0.6508444  3
    618    613    602    620     1  0.0000000  4.9162000  2
    618    613    602    620     1  0.0000000  0.6024960  3
    620    607    606    625     1  0.0000000  0.6508444  3
    620    602    603    623     1  0.0000000  4.9162000  2
    620    602    603    623     1  0.0000000  0.6024960  3
    626    627    629    630     1  180.0000771  0.8368000  1
    626    627    629    630     1  180.0000771  1.0460000  2
    626    627    629    630     1  0.0000000  0.7531200  3
    626    627    629    636     1  0.0000000  0.6508444  3
    626    644    631    635     1  0.0000000  1.6038667  3
    626    644    631    630     1  180.0000771  0.4184000  2
    626    644    631    630     1  0.0000000  1.6024720  3
    627    629    630    631     1  180.0000771  0.8368000  1
    627    629    630    631     1  180.0000771  1.0460000  2
    627    629    630    631     1  0.0000000  0.7531200  3
    627    629    630    649     1  0.0000000  0.6508444  3
    627    626    637    642     1  0.0000000  0.6508444  3
    627    626    644    631     1  180.0000771  0.4184000  2
    627    626    644    631     1  0.0000000  1.6024720  3
    629    630    631    635     1  0.0000000  0.6508444  3
    629    630    631    644     1  0.0000000  0.6508444  3
    629    627    626    637     1  180.0000771  0.8368000  1
    629    627    626    637     1  180.0000771  1.0460000  2
    629    627    626    637     1  0.0000000  0.7531200  3
    629    627    626    644     1  0.0000000  0.6508444  3
    630    629    627    647     1  0.0000000  0.6508444  3
    631    644    626    637     1  180.0000771  0.4184000  2
    631    644    626    637     1  0.0000000  1.6024720  3
    631    630    629    636     1  0.0000000  0.6508444  3
    635    631    630    649     1  0.0000000  0.6508444  3
    636    629    630    649     1  0.0000000  0.6508444  3
    636    629    627    647     1  0.0000000  4.9162000  2
    636    629    627    647     1  0.0000000  0.6024960  3
    637    626    627    647     1  0.0000000  0.6508444  3
    642    637    626    644     1  0.0000000  4.9162000  2
    642    637    626    644     1  0.0000000  0.6024960  3
    644    631    630    649     1  0.0000000  0.6508444  3
    644    626    627    647     1  0.0000000  4.9162000  2
    644    626    627    647     1  0.0000000  0.6024960  3
    651    653    655    659     1  0.0000000  0.6508444  3
    653    655    659    660     1  0.0000000  0.6508444  3
    653    655    659    661     1  0.0000000  0.6508444  3
    655    659    660    671     1  0.0000000  0.6508444  3
    655    659    661    663     1  0.0000000  0.6508444  3
    659    660    671    674     1  0.0000000  0.6508444  3
    659    661    663    667     1  0.0000000  0.6508444  3
    660    659    661    663     1  0.0000000  0.6508444  3
    660    671    674    675     1  180.0000771  0.0000000  2
    660    671    674    723     1  180.0000771  0.0000000  2
    661    659    660    671     1  0.0000000  0.6508444  3
    661    663    667    668     1  180.0000771  0.0000000  2
    661    663    667    699     1  180.0000771  0.0000000  2
    663    667    699    680     1  180.0000771  6.0668000  2
    663    667    699    680     1  180.0000771  1.4644000  4
    667    699    680    679     1  0.0000000  1.2552000  3
    667    699    680    681     1  0.0000000  1.2552000  3
    668    667    699    680     1  180.0000771  6.0668000  2
    668    667    699    680     1  180.0000771  1.4644000  4
    671    674    723    704     1  180.0000771  6.0668000  2
    671    674    723    704     1  180.0000771  1.4644000  4
    674    723    704    703     1  0.0000000  1.2552000  3
    674    723    704    705     1  0.0000000  1.2552000  3
    675    674    723    704     1  180.0000771  6.0668000  2
    675    674    723    704     1  180.0000771  1.4644000  4
    676    677    679    680     1  180.0000771  0.8368000  1
    676    677    679    680     1  180.0000771  1.0460000  2
    676    677    679    680     1  0.0000000  0.7531200  3
    676    677    679    686     1  0.0000000  0.6508444  3
    676    694    681    680     1  180.0000771  0.4184000  2
    676    694    681    680     1  0.0000000  1.6024720  3
    676    694    681    685     1  0.0000000  1.6038667  3
    677    676    687    692     1  0.0000000  0.6508444  3
    677    676    694    681     1  180.0000771  0.4184000  2
    677    676    694    681     1  0.0000000  1.6024720  3
    677    679    680    681     1  180.0000771  0.8368000  1
    677    679    680    681     1  180.0000771  1.0460000  2
    677    679    680    681     1  0.0000000  0.7531200  3
    677    679    680    699     1  0.0000000  0.6508444  3
    679    677    676    687     1  180.0000771  0.8368000  1
    679    677    676    687     1  180.0000771  1.0460000  2
    679    677    676    687     1  0.0000000  0.7531200  3
    679    677    676    694     1  0.0000000  0.6508444  3
    679    680    681    685     1  0.0000000  0.6508444  3
    679    680    681    694     1  0.0000000  0.6508444  3
    680    679    677    697     1  0.0000000  0.6508444  3
    681    680    679    686     1  0.0000000  0.6508444  3
    681    694    676    687     1  180.0000771  0.4184000  2
    681    694    676    687     1  0.0000000  1.6024720  3
    685    681    680    699     1  0.0000000  0.6508444  3
    686    679    677    697     1  0.0000000  4.9162000  2
    686    679    677    697     1  0.0000000  0.6024960  3
    686    679    680    699     1  0.0000000  0.6508444  3
    687    676    677    697     1  0.0000000  0.6508444  3
    692    687    676    694     1  0.0000000  4.9162000  2
    692    687    676    694     1  0.0000000  0.6024960  3
    694    676    677    697     1  0.0000000  4.9162000  2
    694    676    677    697     1  0.0000000  0.6024960  3
    694    681    680    699     1  0.0000000  0.6508444  3
    700    701    703    704     1  180.0000771  0.8368000  1
    700    701    703    704     1  180.0000771  1.0460000  2
    700    701    703    704     1  0.0000000  0.7531200  3
    700    701    703    710     1  0.0000000  0.6508444  3
    700    718    705    704     1  180.0000771  0.4184000  2
    700    718    705    704     1  0.0000000  1.6024720  3
    700    718    705    709     1  0.0000000  1.6038667  3
    701    700    711    716     1  0.0000000  0.6508444  3
    701    700    718    705     1  180.0000771  0.4184000  2
    701    700    718    705     1  0.0000000  1.6024720  3
    701    703    704    705     1  180.0000771  0.8368000  1
    701    703    704    705     1  180.0000771  1.0460000  2
    701    703    704    705     1  0.0000000  0.7531200  3
    701    703    704    723     1  0.0000000  0.6508444  3
    703    701    700    711     1  180.0000771  0.8368000  1
    703    701    700    711     1  180.0000771  1.0460000  2
    703    701    700    711     1  0.0000000  0.7531200  3
    703    701    700    718     1  0.0000000  0.6508444  3
    703    704    705    709     1  0.0000000  0.6508444  3
    703    704    705    718     1  0.0000000  0.6508444  3
    704    703    701    721     1  0.0000000  0.6508444  3
    705    704    703    710     1  0.0000000  0.6508444  3
    705    718    700    711     1  180.0000771  0.4184000  2
    705    718    700    711     1  0.0000000  1.6024720  3
    709    705    704    723     1  0.0000000  0.6508444  3
    710    703    701    721     1  0.0000000  4.9162000  2
    710    703    701    721     1  0.0000000  0.6024960  3
    710    703    704    723     1  0.0000000  0.6508444  3
    711    700    701    721     1  0.0000000  0.6508444  3
    716    711    700    718     1  0.0000000  4.9162000  2
    716    711    700    718     1  0.0000000  0.6024960  3
    718    700    701    721     1  0.0000000  4.9162000  2
    718    700    701    721     1  0.0000000  0.6024960  3
    718    705    704    723     1  0.0000000  0.6508444  3
    725    727    729    733     1  0.0000000  0.6508444  3
    727    729    733    734     1  0.0000000  0.6508444  3
    727    729    733    735     1  0.0000000  0.6508444  3
    729    733    734    745     1  0.0000000  0.6508444  3
    729    733    735    737     1  0.0000000  0.6508444  3
    733    734    745    748     1  0.0000000  0.6508444  3
    733    735    737    741     1  0.0000000  0.6508444  3
    734    745    748    749     1  180.0000771  0.0000000  2
    734    745    748    797     1  180.0000771  0.0000000  2
    734    733    735    737     1  0.0000000  0.6508444  3
    735    737    741    742     1  180.0000771  0.0000000  2
    735    737    741    773     1  180.0000771  0.0000000  2
    735    733    734    745     1  0.0000000  0.6508444  3
    737    741    773    754     1  180.0000771  6.0668000  2
    737    741    773    754     1  180.0000771  1.4644000  4
    741    773    754    755     1  0.0000000  1.2552000  3
    741    773    754    753     1  0.0000000  1.2552000  3
    742    741    773    754     1  180.0000771  6.0668000  2
    742    741    773    754     1  180.0000771  1.4644000  4
    745    748    797    778     1  180.0000771  6.0668000  2
    745    748    797    778     1  180.0000771  1.4644000  4
    748    797    778    779     1  0.0000000  1.2552000  3
    748    797    778    777     1  0.0000000  1.2552000  3
    749    748    797    778     1  180.0000771  6.0668000  2
    749    748    797    778     1  180.0000771  1.4644000  4
    750    751    753    754     1  180.0000771  0.8368000  1
    750    751    753    754     1  180.0000771  1.0460000  2
    750    751    753    754     1  0.0000000  0.7531200  3
    750    751    753    760     1  0.0000000  0.6508444  3
    750    768    755    759     1  0.0000000  1.6038667  3
    750    768    755    754     1  180.0000771  0.4184000  2
    750    768    755    754     1  0.0000000  1.6024720  3
    751    753    754    755     1  180.0000771  0.8368000  1
    751    753    754    755     1  180.0000771  1.0460000  2
    751    753    754    755     1  0.0000000  0.7531200  3
    751    753    754    773     1  0.0000000  0.6508444  3
    751    750    761    766     1  0.0000000  0.6508444  3
    751    750    768    755     1  180.0000771  0.4184000  2
    751    750    768    755     1  0.0000000  1.6024720  3
    753    754    755    759     1  0.0000000  0.6508444  3
    753    754    755    768     1  0.0000000  0.6508444  3
    753    751    750    761     1  180.0000771  0.8368000  1
    753    751    750    761     1  180.0000771  1.0460000  2
    753    751    750    761     1  0.0000000  0.7531200  3
    753    751    750    768     1  0.0000000  0.6508444  3
    754    753    751    771     1  0.0000000  0.6508444  3
    755    768    750    761     1  180.0000771  0.4184000  2
    755    768    750    761     1  0.0000000  1.6024720  3
    755    754    753    760     1  0.0000000  0.6508444  3
    759    755    754    773     1  0.0000000  0.6508444  3
    760    753    754    773     1  0.0000000  0.6508444  3
    760    753    751    771     1  0.0000000  4.9162000  2
    760    753    751    771     1  0.0000000  0.6024960  3
    761    750    751    771     1  0.0000000  0.6508444  3
    766    761    750    768     1  0.0000000  4.9162000  2
    766    761    750    768     1  0.0000000  0.6024960  3
    768    755    754    773     1  0.0000000  0.6508444  3
    768    750    751    771     1  0.0000000  4.9162000  2
    768    750    751    771     1  0.0000000  0.6024960  3
    774    775    777    778     1  180.0000771  0.8368000  1
    774    775    777    778     1  180.0000771  1.0460000  2
    774    775    777    778     1  0.0000000  0.7531200  3
    774    775    777    784     1  0.0000000  0.6508444  3
    774    792    779    783     1  0.0000000  1.6038667  3
    774    792    779    778     1  180.0000771  0.4184000  2
    774    792    779    778     1  0.0000000  1.6024720  3
    775    777    778    779     1  180.0000771  0.8368000  1
    775    777    778    779     1  180.0000771  1.0460000  2
    775    777    778    779     1  0.0000000  0.7531200  3
    775    777    778    797     1  0.0000000  0.6508444  3
    775    774    785    790     1  0.0000000  0.6508444  3
    775    774    792    779     1  180.0000771  0.4184000  2
    775    774    792    779     1  0.0000000  1.6024720  3
    777    778    779    783     1  0.0000000  0.6508444  3
    777    778    779    792     1  0.0000000  0.6508444  3
    777    775    774    785     1  180.0000771  0.8368000  1
    777    775    774    785     1  180.0000771  1.0460000  2
    777    775    774    785     1  0.0000000  0.7531200  3
    777    775    774    792     1  0.0000000  0.6508444  3
    778    777    775    795     1  0.0000000  0.6508444  3
    779    792    774    785     1  180.0000771  0.4184000  2
    779    792    774    785     1  0.0000000  1.6024720  3
    779    778    777    784     1  0.0000000  0.6508444  3
    783    779    778    797     1  0.0000000  0.6508444  3
    784    777    778    797     1  0.0000000  0.6508444  3
    784    777    775    795     1  0.0000000  4.9162000  2
    784    777    775    795     1  0.0000000  0.6024960  3
    785    774    775    795     1  0.0000000  0.6508444  3
    790    785    774    792     1  0.0000000  4.9162000  2
    790    785    774    792     1  0.0000000  0.6024960  3
    792    779    778    797     1  0.0000000  0.6508444  3
    792    774    775    795     1  0.0000000  4.9162000  2
    792    774    775    795     1  0.0000000  0.6024960  3
    799    801    803    807     1  0.0000000  0.6508444  3
    801    803    807    808     1  0.0000000  0.6508444  3
    801    803    807    809     1  0.0000000  0.6508444  3
    803    807    808    819     1  0.0000000  0.6508444  3
    803    807    809    811     1  0.0000000  0.6508444  3
    807    808    819    822     1  0.0000000  0.6508444  3
    807    809    811    815     1  0.0000000  0.6508444  3
    808    807    809    811     1  0.0000000  0.6508444  3
    808    819    822    823     1  180.0000771  0.0000000  2
    808    819    822    871     1  180.0000771  0.0000000  2
    809    807    808    819     1  0.0000000  0.6508444  3
    809    811    815    816     1  180.0000771  0.0000000  2
    809    811    815    847     1  180.0000771  0.0000000  2
    811    815    847    828     1  180.0000771  6.0668000  2
    811    815    847    828     1  180.0000771  1.4644000  4
    815    847    828    827     1  0.0000000  1.2552000  3
    815    847    828    829     1  0.0000000  1.2552000  3
    816    815    847    828     1  180.0000771  6.0668000  2
    816    815    847    828     1  180.0000771  1.4644000  4
    819    822    871    852     1  180.0000771  6.0668000  2
    819    822    871    852     1  180.0000771  1.4644000  4
    822    871    852    851     1  0.0000000  1.2552000  3
    822    871    852    853     1  0.0000000  1.2552000  3
    823    822    871    852     1  180.0000771  6.0668000  2
    823    822    871    852     1  180.0000771  1.4644000  4
    824    825    827    828     1  180.0000771  0.8368000  1
    824    825    827    828     1  180.0000771  1.0460000  2
    824    825    827    828     1  0.0000000  0.7531200  3
    824    825    827    834     1  0.0000000  0.6508444  3
    824    842    829    828     1  180.0000771  0.4184000  2
    824    842    829    828     1  0.0000000  1.6024720  3
    824    842    829    833     1  0.0000000  1.6038667  3
    825    824    835    840     1  0.0000000  0.6508444  3
    825    824    842    829     1  180.0000771  0.4184000  2
    825    824    842    829     1  0.0000000  1.6024720  3
    825    827    828    829     1  180.0000771  0.8368000  1
    825    827    828    829     1  180.0000771  1.0460000  2
    825    827    828    829     1  0.0000000  0.7531200  3
    825    827    828    847     1  0.0000000  0.6508444  3
    827    825    824    835     1  180.0000771  0.8368000  1
    827    825    824    835     1  180.0000771  1.0460000  2
    827    825    824    835     1  0.0000000  0.7531200  3
    827    825    824    842     1  0.0000000  0.6508444  3
    827    828    829    833     1  0.0000000  0.6508444  3
    827    828    829    842     1  0.0000000  0.6508444  3
    828    827    825    845     1  0.0000000  0.6508444  3
    829    828    827    834     1  0.0000000  0.6508444  3
    829    842    824    835     1  180.0000771  0.4184000  2
    829    842    824    835     1  0.0000000  1.6024720  3
    833    829    828    847     1  0.0000000  0.6508444  3
    834    827    825    845     1  0.0000000  4.9162000  2
    834    827    825    845     1  0.0000000  0.6024960  3
    834    827    828    847     1  0.0000000  0.6508444  3
    835    824    825    845     1  0.0000000  0.6508444  3
    840    835    824    842     1  0.0000000  4.9162000  2
    840    835    824    842     1  0.0000000  0.6024960  3
    842    824    825    845     1  0.0000000  4.9162000  2
    842    824    825    845     1  0.0000000  0.6024960  3
    842    829    828    847     1  0.0000000  0.6508444  3
    848    849    851    852     1  180.0000771  0.8368000  1
    848    849    851    852     1  180.0000771  1.0460000  2
    848    849    851    852     1  0.0000000  0.7531200  3
    848    849    851    858     1  0.0000000  0.6508444  3
    848    866    853    852     1  180.0000771  0.4184000  2
    848    866    853    852     1  0.0000000  1.6024720  3
    848    866    853    857     1  0.0000000  1.6038667  3
    849    848    859    864     1  0.0000000  0.6508444  3
    849    848    866    853     1  180.0000771  0.4184000  2
    849    848    866    853     1  0.0000000  1.6024720  3
    849    851    852    853     1  180.0000771  0.8368000  1
    849    851    852    853     1  180.0000771  1.0460000  2
    849    851    852    853     1  0.0000000  0.7531200  3
    849    851    852    871     1  0.0000000  0.6508444  3
    851    849    848    859     1  180.0000771  0.8368000  1
    851    849    848    859     1  180.0000771  1.0460000  2
    851    849    848    859     1  0.0000000  0.7531200  3
    851    849    848    866     1  0.0000000  0.6508444  3
    851    852    853    857     1  0.0000000  0.6508444  3
    851    852    853    866     1  0.0000000  0.6508444  3
    852    851    849    869     1  0.0000000  0.6508444  3
    853    852    851    858     1  0.0000000  0.6508444  3
    853    866    848    859     1  180.0000771  0.4184000  2
    853    866    848    859     1  0.0000000  1.6024720  3
    857    853    852    871     1  0.0000000  0.6508444  3
    858    851    849    869     1  0.0000000  4.9162000  2
    858    851    849    869     1  0.0000000  0.6024960  3
    858    851    852    871     1  0.0000000  0.6508444  3
    859    848    849    869     1  0.0000000  0.6508444  3
    864    859    848    866     1  0.0000000  4.9162000  2
    864    859    848    866     1  0.0000000  0.6024960  3
    866    848    849    869     1  0.0000000  4.9162000  2
    866    848    849    869     1  0.0000000  0.6024960  3
    866    853    852    871     1  0.0000000  0.6508444  3
    873    875    877    881     1  0.0000000  0.6508444  3
    875    877    881    882     1  0.0000000  0.6508444  3
    875    877    881    883     1  0.0000000  0.6508444  3
    877    881    882    893     1  0.0000000  0.6508444  3
    877    881    883    885     1  0.0000000  0.6508444  3
    881    882    893    896     1  0.0000000  0.6508444  3
    881    883    885    889     1  0.0000000  0.6508444  3
    882    893    896    897     1  180.0000771  0.0000000  2
    882    893    896    945     1  180.0000771  0.0000000  2
    882    881    883    885     1  0.0000000  0.6508444  3
    883    885    889    890     1  180.0000771  0.0000000  2
    883    885    889    921     1  180.0000771  0.0000000  2
    883    881    882    893     1  0.0000000  0.6508444  3
    885    889    921    902     1  180.0000771  6.0668000  2
    885    889    921    902     1  180.0000771  1.4644000  4
    889    921    902    903     1  0.0000000  1.2552000  3
    889    921    902    901     1  0.0000000  1.2552000  3
    890    889    921    902     1  180.0000771  6.0668000  2
    890    889    921    902     1  180.0000771  1.4644000  4
    893    896    945    926     1  180.0000771  6.0668000  2
    893    896    945    926     1  180.0000771  1.4644000  4
    896    945    926    927     1  0.0000000  1.2552000  3
    896    945    926    925     1  0.0000000  1.2552000  3
    897    896    945    926     1  180.0000771  6.0668000  2
    897    896    945    926     1  180.0000771  1.4644000  4
    898    899    901    902     1  180.0000771  0.8368000  1
    898    899    901    902     1  180.0000771  1.0460000  2
    898    899    901    902     1  0.0000000  0.7531200  3
    898    899    901    908     1  0.0000000  0.6508444  3
    898    916    903    907     1  0.0000000  1.6038667  3
    898    916    903    902     1  180.0000771  0.4184000  2
    898    916    903    902     1  0.0000000  1.6024720  3
    899    901    902    903     1  180.0000771  0.8368000  1
    899    901    902    903     1  180.0000771  1.0460000  2
    899    901    902    903     1  0.0000000  0.7531200  3
    899    901    902    921     1  0.0000000  0.6508444  3
    899    898    909    914     1  0.0000000  0.6508444  3
    899    898    916    903     1  180.0000771  0.4184000  2
    899    898    916    903     1  0.0000000  1.6024720  3
    901    902    903    907     1  0.0000000  0.6508444  3
    901    902    903    916     1  0.0000000  0.6508444  3
    901    899    898    909     1  180.0000771  0.8368000  1
    901    899    898    909     1  180.0000771  1.0460000  2
    901    899    898    909     1  0.0000000  0.7531200  3
    901    899    898    916     1  0.0000000  0.6508444  3
    902    901    899    919     1  0.0000000  0.6508444  3
    903    916    898    909     1  180.0000771  0.4184000  2
    903    916    898    909     1  0.0000000  1.6024720  3
    903    902    901    908     1  0.0000000  0.6508444  3
    907    903    902    921     1  0.0000000  0.6508444  3
    908    901    902    921     1  0.0000000  0.6508444  3
    908    901    899    919     1  0.0000000  4.9162000  2
    908    901    899    919     1  0.0000000  0.6024960  3
    909    898    899    919     1  0.0000000  0.6508444  3
    914    909    898    916     1  0.0000000  4.9162000  2
    914    909    898    916     1  0.0000000  0.6024960  3
    916    903    902    921     1  0.0000000  0.6508444  3
    916    898    899    919     1  0.0000000  4.9162000  2
    916    898    899    919     1  0.0000000  0.6024960  3
    922    923    925    926     1  180.0000771  0.8368000  1
    922    923    925    926     1  180.0000771  1.0460000  2
    922    923    925    926     1  0.0000000  0.7531200  3
    922    923    925    932     1  0.0000000  0.6508444  3
    922    940    927    931     1  0.0000000  1.6038667  3
    922    940    927    926     1  180.0000771  0.4184000  2
    922    940    927    926     1  0.0000000  1.6024720  3
    923    925    926    927     1  180.0000771  0.8368000  1
    923    925    926    927     1  180.0000771  1.0460000  2
    923    925    926    927     1  0.0000000  0.7531200  3
    923    925    926    945     1  0.0000000  0.6508444  3
    923    922    933    938     1  0.0000000  0.6508444  3
    923    922    940    927     1  180.0000771  0.4184000  2
    923    922    940    927     1  0.0000000  1.6024720  3
    925    926    927    931     1  0.0000000  0.6508444  3
    925    926    927    940     1  0.0000000  0.6508444  3
    925    923    922    933     1  180.0000771  0.8368000  1
    925    923    922    933     1  180.0000771  1.0460000  2
    925    923    922    933     1  0.0000000  0.7531200  3
    925    923    922    940     1  0.0000000  0.6508444  3
    926    925    923    943     1  0.0000000  0.6508444  3
    927    940    922    933     1  180.0000771  0.4184000  2
    927    940    922    933     1  0.0000000  1.6024720  3
    927    926    925    932     1  0.0000000  0.6508444  3
    931    927    926    945     1  0.0000000  0.6508444  3
    932    925    926    945     1  0.0000000  0.6508444  3
    932    925    923    943     1  0.0000000  4.9162000  2
    932    925    923    943     1  0.0000000  0.6024960  3
    933    922    923    943     1  0.0000000  0.6508444  3
    938    933    922    940     1  0.0000000  4.9162000  2
    938    933    922    940     1  0.0000000  0.6024960  3
    940    927    926    945     1  0.0000000  0.6508444  3
    940    922    923    943     1  0.0000000  4.9162000  2
    940    922    923    943     1  0.0000000  0.6024960  3
    947    949    951    955     1  0.0000000  0.6508444  3
    949    951    955    956     1  0.0000000  0.6508444  3
    949    951    955    957     1  0.0000000  0.6508444  3
    951    955    956    967     1  0.0000000  0.6508444  3
    951    955    957    959     1  0.0000000  0.6508444  3
    955    956    967    970     1  0.0000000  0.6508444  3
    955    957    959    963     1  0.0000000  0.6508444  3
    956    955    957    959     1  0.0000000  0.6508444  3
    956    967    970    971     1  180.0000771  0.0000000  2
    956    967    970   1019     1  180.0000771  0.0000000  2
    957    955    956    967     1  0.0000000  0.6508444  3
    957    959    963    964     1  180.0000771  0.0000000  2
    957    959    963    995     1  180.0000771  0.0000000  2
    959    963    995    976     1  180.0000771  6.0668000  2
    959    963    995    976     1  180.0000771  1.4644000  4
    963    995    976    975     1  0.0000000  1.2552000  3
    963    995    976    977     1  0.0000000  1.2552000  3
    964    963    995    976     1  180.0000771  6.0668000  2
    964    963    995    976     1  180.0000771  1.4644000  4
    967    970   1019   1000     1  180.0000771  6.0668000  2
    967    970   1019   1000     1  180.0000771  1.4644000  4
    970   1019   1000    999     1  0.0000000  1.2552000  3
    970   1019   1000   1001     1  0.0000000  1.2552000  3
    971    970   1019   1000     1  180.0000771  6.0668000  2
    971    970   1019   1000     1  180.0000771  1.4644000  4
    972    973    975    976     1  180.0000771  0.8368000  1
    972    973    975    976     1  180.0000771  1.0460000  2
    972    973    975    976     1  0.0000000  0.7531200  3
    972    973    975    982     1  0.0000000  0.6508444  3
    972    990    977    976     1  180.0000771  0.4184000  2
    972    990    977    976     1  0.0000000  1.6024720  3
    972    990    977    981     1  0.0000000  1.6038667  3
    973    972    983    988     1  0.0000000  0.6508444  3
    973    972    990    977     1  180.0000771  0.4184000  2
    973    972    990    977     1  0.0000000  1.6024720  3
    973    975    976    977     1  180.0000771  0.8368000  1
    973    975    976    977     1  180.0000771  1.0460000  2
    973    975    976    977     1  0.0000000  0.7531200  3
    973    975    976    995     1  0.0000000  0.6508444  3
    975    973    972    983     1  180.0000771  0.8368000  1
    975    973    972    983     1  180.0000771  1.0460000  2
    975    973    972    983     1  0.0000000  0.7531200  3
    975    973    972    990     1  0.0000000  0.6508444  3
    975    976    977    981     1  0.0000000  0.6508444  3
    975    976    977    990     1  0.0000000  0.6508444  3
    976    975    973    993     1  0.0000000  0.6508444  3
    977    976    975    982     1  0.0000000  0.6508444  3
    977    990    972    983     1  180.0000771  0.4184000  2
    977    990    972    983     1  0.0000000  1.6024720  3
    981    977    976    995     1  0.0000000  0.6508444  3
    982    975    973    993     1  0.0000000  4.9162000  2
    982    975    973    993     1  0.0000000  0.6024960  3
    982    975    976    995     1  0.0000000  0.6508444  3
    983    972    973    993     1  0.0000000  0.6508444  3
    988    983    972    990     1  0.0000000  4.9162000  2
    988    983    972    990     1  0.0000000  0.6024960  3
    990    972    973    993     1  0.0000000  4.9162000  2
    990    972    973    993     1  0.0000000  0.6024960  3
    990    977    976    995     1  0.0000000  0.6508444  3
    996    997    999   1000     1  180.0000771  0.8368000  1
    996    997    999   1000     1  180.0000771  1.0460000  2
    996    997    999   1000     1  0.0000000  0.7531200  3
    996    997    999   1006     1  0.0000000  0.6508444  3
    996   1014   1001   1000     1  180.0000771  0.4184000  2
    996   1014   1001   1000     1  0.0000000  1.6024720  3
    996   1014   1001   1005     1  0.0000000  1.6038667  3
    997    996   1007   1012     1  0.0000000  0.6508444  3
    997    996   1014   1001     1  180.0000771  0.4184000  2
    997    996   1014   1001     1  0.0000000  1.6024720  3
    997    999   1000   1001     1  180.0000771  0.8368000  1
    997    999   1000   1001     1  180.0000771  1.0460000  2
    997    999   1000   1001     1  0.0000000  0.7531200  3
    997    999   1000   1019     1  0.0000000  0.6508444  3
    999    997    996   1007     1  180.0000771  0.8368000  1
    999    997    996   1007     1  180.0000771  1.0460000  2
    999    997    996   1007     1  0.0000000  0.7531200  3
    999    997    996   1014     1  0.0000000  0.6508444  3
    999   1000   1001   1005     1  0.0000000  0.6508444  3
    999   1000   1001   1014     1  0.0000000  0.6508444  3
   1000    999    997   1017     1  0.0000000  0.6508444  3
   1001   1000    999   1006     1  0.0000000  0.6508444  3
   1001   1014    996   1007     1  180.0000771  0.4184000  2
   1001   1014    996   1007     1  0.0000000  1.6024720  3
   1005   1001   1000   1019     1  0.0000000  0.6508444  3
   1006    999    997   1017     1  0.0000000  4.9162000  2
   1006    999    997   1017     1  0.0000000  0.6024960  3
   1006    999   1000   1019     1  0.0000000  0.6508444  3
   1007    996    997   1017     1  0.0000000  0.6508444  3
   1012   1007    996   1014     1  0.0000000  4.9162000  2
   1012   1007    996   1014     1  0.0000000  0.6024960  3
   1014    996    997   1017     1  0.0000000  4.9162000  2
   1014    996    997   1017     1  0.0000000  0.6024960  3
   1014   1001   1000   1019     1  0.0000000  0.6508444  3
   1021   1023   1025   1029     1  0.0000000  0.6508444  3
   1023   1025   1029   1030     1  0.0000000  0.6508444  3
   1023   1025   1029   1031     1  0.0000000  0.6508444  3
   1025   1029   1030   1041     1  0.0000000  0.6508444  3
   1025   1029   1031   1033     1  0.0000000  0.6508444  3
   1029   1030   1041   1044     1  0.0000000  0.6508444  3
   1029   1031   1033   1037     1  0.0000000  0.6508444  3
   1030   1041   1044   1045     1  180.0000771  0.0000000  2
   1030   1041   1044   1093     1  180.0000771  0.0000000  2
   1030   1029   1031   1033     1  0.0000000  0.6508444  3
   1031   1033   1037   1038     1  180.0000771  0.0000000  2
   1031   1033   1037   1069     1  180.0000771  0.0000000  2
   1031   1029   1030   1041     1  0.0000000  0.6508444  3
   1033   1037   1069   1050     1  180.0000771  6.0668000  2
   1033   1037   1069   1050     1  180.0000771  1.4644000  4
   1037   1069   1050   1051     1  0.0000000  1.2552000  3
   1037   1069   1050   1049     1  0.0000000  1.2552000  3
   1038   1037   1069   1050     1  180.0000771  6.0668000  2
   1038   1037   1069   1050     1  180.0000771  1.4644000  4
   1041   1044   1093   1074     1  180.0000771  6.0668000  2
   1041   1044   1093   1074     1  180.0000771  1.4644000  4
   1044   1093   1074   1075     1  0.0000000  1.2552000  3
   1044   1093   1074   1073     1  0.0000000  1.2552000  3
   1045   1044   1093   1074     1  180.0000771  6.0668000  2
   1045   1044   1093   1074     1  180.0000771  1.4644000  4
   1046   1047   1049   1050     1  180.0000771  0.8368000  1
   1046   1047   1049   1050     1  180.0000771  1.0460000  2
   1046   1047   1049   1050     1  0.0000000  0.7531200  3
   1046   1047   1049   1056     1  0.0000000  0.6508444  3
   1046   1064   1051   1055     1  0.0000000  1.6038667  3
   1046   1064   1051   1050     1  180.0000771  0.4184000  2
   1046   1064   1051   1050     1  0.0000000  1.6024720  3
   1047   1049   1050   1051     1  180.0000771  0.8368000  1
   1047   1049   1050   1051     1  180.0000771  1.0460000  2
   1047   1049   1050   1051     1  0.0000000  0.7531200  3
   1047   1049   1050   1069     1  0.0000000  0.6508444  3
   1047   1046   1057   1062     1  0.0000000  0.6508444  3
   1047   1046   1064   1051     1  180.0000771  0.4184000  2
   1047   1046   1064   1051     1  0.0000000  1.6024720  3
   1049   1050   1051   1055     1  0.0000000  0.6508444  3
   1049   1050   1051   1064     1  0.0000000  0.6508444  3
   1049   1047   1046   1057     1  180.0000771  0.8368000  1
   1049   1047   1046   1057     1  180.0000771  1.0460000  2
   1049   1047   1046   1057     1  0.0000000  0.7531200  3
   1049   1047   1046   1064     1  0.0000000  0.6508444  3
   1050   1049   1047   1067     1  0.0000000  0.6508444  3
   1051   1064   1046   1057     1  180.0000771  0.4184000  2
   1051   1064   1046   1057     1  0.0000000  1.6024720  3
   1051   1050   1049   1056     1  0.0000000  0.6508444  3
   1055   1051   1050   1069     1  0.0000000  0.6508444  3
   1056   1049   1050   1069     1  0.0000000  0.6508444  3
   1056   1049   1047   1067     1  0.0000000  4.9162000  2
   1056   1049   1047   1067     1  0.0000000  0.6024960  3
   1057   1046   1047   1067     1  0.0000000  0.6508444  3
   1062   1057   1046   1064     1  0.0000000  4.9162000  2
   1062   1057   1046   1064     1  0.0000000  0.6024960  3
   1064   1051   1050   1069     1  0.0000000  0.6508444  3
   1064   1046   1047   1067     1  0.0000000  4.9162000  2
   1064   1046   1047   1067     1  0.0000000  0.6024960  3
   1070   1071   1073   1074     1  180.0000771  0.8368000  1
   1070   1071   1073   1074     1  180.0000771  1.0460000  2
   1070   1071   1073   1074     1  0.0000000  0.7531200  3
   1070   1071   1073   1080     1  0.0000000  0.6508444  3
   1070   1088   1075   1079     1  0.0000000  1.6038667  3
   1070   1088   1075   1074     1  180.0000771  0.4184000  2
   1070   1088   1075   1074     1  0.0000000  1.6024720  3
   1071   1073   1074   1075     1  180.0000771  0.8368000  1
   1071   1073   1074   1075     1  180.0000771  1.0460000  2
   1071   1073   1074   1075     1  0.0000000  0.7531200  3
   1071   1073   1074   1093     1  0.0000000  0.6508444  3
   1071   1070   1081   1086     1  0.0000000  0.6508444  3
   1071   1070   1088   1075     1  180.0000771  0.4184000  2
   1071   1070   1088   1075     1  0.0000000  1.6024720  3
   1073   1074   1075   1079     1  0.0000000  0.6508444  3
   1073   1074   1075   1088     1  0.0000000  0.6508444  3
   1073   1071   1070   1081     1  180.0000771  0.8368000  1
   1073   1071   1070   1081     1  180.0000771  1.0460000  2
   1073   1071   1070   1081     1  0.0000000  0.7531200  3
   1073   1071   1070   1088     1  0.0000000  0.6508444  3
   1074   1073   1071   1091     1  0.0000000  0.6508444  3
   1075   1088   1070   1081     1  180.0000771  0.4184000  2
   1075   1088   1070   1081     1  0.0000000  1.6024720  3
   1075   1074   1073   1080     1  0.0000000  0.6508444  3
   1079   1075   1074   1093     1  0.0000000  0.6508444  3
   1080   1073   1074   1093     1  0.0000000  0.6508444  3
   1080   1073   1071   1091     1  0.0000000  4.9162000  2
   1080   1073   1071   1091     1  0.0000000  0.6024960  3
   1081   1070   1071   1091     1  0.0000000  0.6508444  3
   1086   1081   1070   1088     1  0.0000000  4.9162000  2
   1086   1081   1070   1088     1  0.0000000  0.6024960  3
   1088   1075   1074   1093     1  0.0000000  0.6508444  3
   1088   1070   1071   1091     1  0.0000000  4.9162000  2
   1088   1070   1071   1091     1  0.0000000  0.6024960  3
   1095   1097   1099   1103     1  0.0000000  0.6508444  3
   1097   1099   1103   1104     1  0.0000000  0.6508444  3
   1097   1099   1103   1105     1  0.0000000  0.6508444  3
   1099   1103   1104   1115     1  0.0000000  0.6508444  3
   1099   1103   1105   1107     1  0.0000000  0.6508444  3
   1103   1104   1115   1118     1  0.0000000  0.6508444  3
   1103   1105   1107   1111     1  0.0000000  0.6508444  3
   1104   1103   1105   1107     1  0.0000000  0.6508444  3
   1104   1115   1118   1119     1  180.0000771  0.0000000  2
   1104   1115   1118   1167     1  180.0000771  0.0000000  2
   1105   1103   1104   1115     1  0.0000000  0.6508444  3
   1105   1107   1111   1112     1  180.0000771  0.0000000  2
   1105   1107   1111   1143     1  180.0000771  0.0000000  2
   1107   1111   1143   1124     1  180.0000771  6.0668000  2
   1107   1111   1143   1124     1  180.0000771  1.4644000  4
   1111   1143   1124   1123     1  0.0000000  1.2552000  3
   1111   1143   1124   1125     1  0.0000000  1.2552000  3
   1112   1111   1143   1124     1  180.0000771  6.0668000  2
   1112   1111   1143   1124     1  180.0000771  1.4644000  4
   1115   1118   1167   1148     1  180.0000771  6.0668000  2
   1115   1118   1167   1148     1  180.0000771  1.4644000  4
   1118   1167   1148   1147     1  0.0000000  1.2552000  3
   1118   1167   1148   1149     1  0.0000000  1.2552000  3
   1119   1118   1167   1148     1  180.0000771  6.0668000  2
   1119   1118   1167   1148     1  180.0000771  1.4644000  4
   1120   1121   1123   1124     1  180.0000771  0.8368000  1
   1120   1121   1123   1124     1  180.0000771  1.0460000  2
   1120   1121   1123   1124     1  0.0000000  0.7531200  3
   1120   1121   1123   1130     1  0.0000000  0.6508444  3
   1120   1138   1125   1124     1  180.0000771  0.4184000  2
   1120   1138   1125   1124     1  0.0000000  1.6024720  3
   1120   1138   1125   1129     1  0.0000000  1.6038667  3
   1121   1120   1131   1136     1  0.0000000  0.6508444  3
   1121   1120   1138   1125     1  180.0000771  0.4184000  2
   1121   1120   1138   1125     1  0.0000000  1.6024720  3
   1121   1123   1124   1125     1  180.0000771  0.8368000  1
   1121   1123   1124   1125     1  180.0000771  1.0460000  2
   1121   1123   1124   1125     1  0.0000000  0.7531200  3
   1121   1123   1124   1143     1  0.0000000  0.6508444  3
   1123   1121   1120   1131     1  180.0000771  0.8368000  1
   1123   1121   1120   1131     1  180.0000771  1.0460000  2
   1123   1121   1120   1131     1  0.0000000  0.7531200  3
   1123   1121   1120   1138     1  0.0000000  0.6508444  3
   1123   1124   1125   1129     1  0.0000000  0.6508444  3
   1123   1124   1125   1138     1  0.0000000  0.6508444  3
   1124   1123   1121   1141     1  0.0000000  0.6508444  3
   1125   1124   1123   1130     1  0.0000000  0.6508444  3
   1125   1138   1120   1131     1  180.0000771  0.4184000  2
   1125   1138   1120   1131     1  0.0000000  1.6024720  3
   1129   1125   1124   1143     1  0.0000000  0.6508444  3
   1130   1123   1121   1141     1  0.0000000  4.9162000  2
   1130   1123   1121   1141     1  0.0000000  0.6024960  3
   1130   1123   1124   1143     1  0.0000000  0.6508444  3
   1131   1120   1121   1141     1  0.0000000  0.6508444  3
   1136   1131   1120   1138     1  0.0000000  4.9162000  2
   1136   1131   1120   1138     1  0.0000000  0.6024960  3
   1138   1120   1121   1141     1  0.0000000  4.9162000  2
   1138   1120   1121   1141     1  0.0000000  0.6024960  3
   1138   1125   1124   1143     1  0.0000000  0.6508444  3
   1144   1145   1147   1148     1  180.0000771  0.8368000  1
   1144   1145   1147   1148     1  180.0000771  1.0460000  2
   1144   1145   1147   1148     1  0.0000000  0.7531200  3
   1144   1145   1147   1154     1  0.0000000  0.6508444  3
   1144   1162   1149   1148     1  180.0000771  0.4184000  2
   1144   1162   1149   1148     1  0.0000000  1.6024720  3
   1144   1162   1149   1153     1  0.0000000  1.6038667  3
   1145   1144   1155   1160     1  0.0000000  0.6508444  3
   1145   1144   1162   1149     1  180.0000771  0.4184000  2
   1145   1144   1162   1149     1  0.0000000  1.6024720  3
   1145   1147   1148   1149     1  180.0000771  0.8368000  1
   1145   1147   1148   1149     1  180.0000771  1.0460000  2
   1145   1147   1148   1149     1  0.0000000  0.7531200  3
   1145   1147   1148   1167     1  0.0000000  0.6508444  3
   1147   1145   1144   1155     1  180.0000771  0.8368000  1
   1147   1145   1144   1155     1  180.0000771  1.0460000  2
   1147   1145   1144   1155     1  0.0000000  0.7531200  3
   1147   1145   1144   1162     1  0.0000000  0.6508444  3
   1147   1148   1149   1153     1  0.0000000  0.6508444  3
   1147   1148   1149   1162     1  0.0000000  0.6508444  3
   1148   1147   1145   1165     1  0.0000000  0.6508444  3
   1149   1148   1147   1154     1  0.0000000  0.6508444  3
   1149   1162   1144   1155     1  180.0000771  0.4184000  2
   1149   1162   1144   1155     1  0.0000000  1.6024720  3
   1153   1149   1148   1167     1  0.0000000  0.6508444  3
   1154   1147   1145   1165     1  0.0000000  4.9162000  2
   1154   1147   1145   1165     1  0.0000000  0.6024960  3
   1154   1147   1148   1167     1  0.0000000  0.6508444  3
   1155   1144   1145   1165     1  0.0000000  0.6508444  3
   1160   1155   1144   1162     1  0.0000000  4.9162000  2
   1160   1155   1144   1162     1  0.0000000  0.6024960  3
   1162   1144   1145   1165     1  0.0000000  4.9162000  2
   1162   1144   1145   1165     1  0.0000000  0.6024960  3
   1162   1149   1148   1167     1  0.0000000  0.6508444  3
   1169   1171   1173   1177     1  0.0000000  0.6508444  3
   1171   1173   1177   1178     1  0.0000000  0.6508444  3
   1171   1173   1177   1179     1  0.0000000  0.6508444  3
   1173   1177   1178   1189     1  0.0000000  0.6508444  3
   1173   1177   1179   1181     1  0.0000000  0.6508444  3
   1177   1178   1189   1192     1  0.0000000  0.6508444  3
   1177   1179   1181   1185     1  0.0000000  0.6508444  3
   1178   1189   1192   1193     1  180.0000771  0.0000000  2
   1178   1189   1192   1241     1  180.0000771  0.0000000  2
   1178   1177   1179   1181     1  0.0000000  0.6508444  3
   1179   1181   1185   1186     1  180.0000771  0.0000000  2
   1179   1181   1185   1217     1  180.0000771  0.0000000  2
   1179   1177   1178   1189     1  0.0000000  0.6508444  3
   1181   1185   1217   1198     1  180.0000771  6.0668000  2
   1181   1185   1217   1198     1  180.0000771  1.4644000  4
   1185   1217   1198   1199     1  0.0000000  1.2552000  3
   1185   1217   1198   1197     1  0.0000000  1.2552000  3
   1186   1185   1217   1198     1  180.0000771  6.0668000  2
   1186   1185   1217   1198     1  180.0000771  1.4644000  4
   1189   1192   1241   1222     1  180.0000771  6.0668000  2
   1189   1192   1241   1222     1  180.0000771  1.4644000  4
   1192   1241   1222   1223     1  0.0000000  1.2552000  3
   1192   1241   1222   1221     1  0.0000000  1.2552000  3
   1193   1192   1241   1222     1  180.0000771  6.0668000  2
   1193   1192   1241   1222     1  180.0000771  1.4644000  4
   1194   1195   1197   1198     1  180.0000771  0.8368000  1
   1194   1195   1197   1198     1  180.0000771  1.0460000  2
   1194   1195   1197   1198     1  0.0000000  0.7531200  3
   1194   1195   1197   1204     1  0.0000000  0.6508444  3
   1194   1212   1199   1203     1  0.0000000  1.6038667  3
   1194   1212   1199   1198     1  180.0000771  0.4184000  2
   1194   1212   1199   1198     1  0.0000000  1.6024720  3
   1195   1197   1198   1199     1  180.0000771  0.8368000  1
   1195   1197   1198   1199     1  180.0000771  1.0460000  2
   1195   1197   1198   1199     1  0.0000000  0.7531200  3
   1195   1197   1198   1217     1  0.0000000  0.6508444  3
   1195   1194   1205   1210     1  0.0000000  0.6508444  3
   1195   1194   1212   1199     1  180.0000771  0.4184000  2
   1195   1194   1212   1199     1  0.0000000  1.6024720  3
   1197   1198   1199   1203     1  0.0000000  0.6508444  3
   1197   1198   1199   1212     1  0.0000000  0.6508444  3
   1197   1195   1194   1205     1  180.0000771  0.8368000  1
   1197   1195   1194   1205     1  180.0000771  1.0460000  2
   1197   1195   1194   1205     1  0.0000000  0.7531200  3
   1197   1195   1194   1212     1  0.0000000  0.6508444  3
   1198   1197   1195   1215     1  0.0000000  0.6508444  3
   1199   1212   1194   1205     1  180.0000771  0.4184000  2
   1199   1212   1194   1205     1  0.0000000  1.6024720  3
   1199   1198   1197   1204     1  0.0000000  0.6508444  3
   1203   1199   1198   1217     1  0.0000000  0.6508444  3
   1204   1197   1198   1217     1  0.0000000  0.6508444  3
   1204   1197   1195   1215     1  0.0000000  4.9162000  2
   1204   1197   1195   1215     1  0.0000000  0.6024960  3
   1205   1194   1195   1215     1  0.0000000  0.6508444  3
   1210   1205   1194   1212     1  0.0000000  4.9162000  2
   1210   1205   1194   1212     1  0.0000000  0.6024960  3
   1212   1199   1198   1217     1  0.0000000  0.6508444  3
   1212   1194   1195   1215     1  0.0000000  4.9162000  2
   1212   1194   1195   1215     1  0.0000000  0.6024960  3
   1218   1219   1221   1222     1  180.0000771  0.8368000  1
   1218   1219   1221   1222     1  180.0000771  1.0460000  2
   1218   1219   1221   1222     1  0.0000000  0.7531200  3
   1218   1219   1221   1228     1  0.0000000  0.6508444  3
   1218   1236   1223   1227     1  0.0000000  1.6038667  3
   1218   1236   1223   1222     1  180.0000771  0.4184000  2
   1218   1236   1223   1222     1  0.0000000  1.6024720  3
   1219   1221   1222   1223     1  180.0000771  0.8368000  1
   1219   1221   1222   1223     1  180.0000771  1.0460000  2
   1219   1221   1222   1223     1  0.0000000  0.7531200  3
   1219   1221   1222   1241     1  0.0000000  0.6508444  3
   1219   1218   1229   1234     1  0.0000000  0.6508444  3
   1219   1218   1236   1223     1  180.0000771  0.4184000  2
   1219   1218   1236   1223     1  0.0000000  1.6024720  3
   1221   1222   1223   1227     1  0.0000000  0.6508444  3
   1221   1222   1223   1236     1  0.0000000  0.6508444  3
   1221   1219   1218   1229     1  180.0000771  0.8368000  1
   1221   1219   1218   1229     1  180.0000771  1.0460000  2
   1221   1219   1218   1229     1  0.0000000  0.7531200  3
   1221   1219   1218   1236     1  0.0000000  0.6508444  3
   1222   1221   1219   1239     1  0.0000000  0.6508444  3
   1223   1236   1218   1229     1  180.0000771  0.4184000  2
   1223   1236   1218   1229     1  0.0000000  1.6024720  3
   1223   1222   1221   1228     1  0.0000000  0.6508444  3
   1227   1223   1222   1241     1  0.0000000  0.6508444  3
   1228   1221   1222   1241     1  0.0000000  0.6508444  3
   1228   1221   1219   1239     1  0.0000000  4.9162000  2
   1228   1221   1219   1239     1  0.0000000  0.6024960  3
   1229   1218   1219   1239     1  0.0000000  0.6508444  3
   1234   1229   1218   1236     1  0.0000000  4.9162000  2
   1234   1229   1218   1236     1  0.0000000  0.6024960  3
   1236   1223   1222   1241     1  0.0000000  0.6508444  3
   1236   1218   1219   1239     1  0.0000000  4.9162000  2
   1236   1218   1219   1239     1  0.0000000  0.6024960  3
   1243   1245   1247   1251     1  0.0000000  0.6508444  3
   1245   1247   1251   1252     1  0.0000000  0.6508444  3
   1245   1247   1251   1253     1  0.0000000  0.6508444  3
   1247   1251   1252   1263     1  0.0000000  0.6508444  3
   1247   1251   1253   1255     1  0.0000000  0.6508444  3
   1251   1252   1263   1266     1  0.0000000  0.6508444  3
   1251   1253   1255   1259     1  0.0000000  0.6508444  3
   1252   1251   1253   1255     1  0.0000000  0.6508444  3
   1252   1263   1266   1267     1  180.0000771  0.0000000  2
   1252   1263   1266   1315     1  180.0000771  0.0000000  2
   1253   1251   1252   1263     1  0.0000000  0.6508444  3
   1253   1255   1259   1260     1  180.0000771  0.0000000  2
   1253   1255   1259   1291     1  180.0000771  0.0000000  2
   1255   1259   1291   1272     1  180.0000771  6.0668000  2
   1255   1259   1291   1272     1  180.0000771  1.4644000  4
   1259   1291   1272   1271     1  0.0000000  1.2552000  3
   1259   1291   1272   1273     1  0.0000000  1.2552000  3
   1260   1259   1291   1272     1  180.0000771  6.0668000  2
   1260   1259   1291   1272     1  180.0000771  1.4644000  4
   1263   1266   1315   1296     1  180.0000771  6.0668000  2
   1263   1266   1315   1296     1  180.0000771  1.4644000  4
   1266   1315   1296   1295     1  0.0000000  1.2552000  3
   1266   1315   1296   1297     1  0.0000000  1.2552000  3
   1267   1266   1315   1296     1  180.0000771  6.0668000  2
   1267   1266   1315   1296     1  180.0000771  1.4644000  4
   1268   1269   1271   1272     1  180.0000771  0.8368000  1
   1268   1269   1271   1272     1  180.0000771  1.0460000  2
   1268   1269   1271   1272     1  0.0000000  0.7531200  3
   1268   1269   1271   1278     1  0.0000000  0.6508444  3
   1268   1286   1273   1272     1  180.0000771  0.4184000  2
   1268   1286   1273   1272     1  0.0000000  1.6024720  3
   1268   1286   1273   1277     1  0.0000000  1.6038667  3
   1269   1268   1279   1284     1  0.0000000  0.6508444  3
   1269   1268   1286   1273     1  180.0000771  0.4184000  2
   1269   1268   1286   1273     1  0.0000000  1.6024720  3
   1269   1271   1272   1273     1  180.0000771  0.8368000  1
   1269   1271   1272   1273     1  180.0000771  1.0460000  2
   1269   1271   1272   1273     1  0.0000000  0.7531200  3
   1269   1271   1272   1291     1  0.0000000  0.6508444  3
   1271   1269   1268   1279     1  180.0000771  0.8368000  1
   1271   1269   1268   1279     1  180.0000771  1.0460000  2
   1271   1269   1268   1279     1  0.0000000  0.7531200  3
   1271   1269   1268   1286     1  0.0000000  0.6508444  3
   1271   1272   1273   1277     1  0.0000000  0.6508444  3
   1271   1272   1273   1286     1  0.0000000  0.6508444  3
   1272   1271   1269   1289     1  0.0000000  0.6508444  3
   1273   1272   1271   1278     1  0.0000000  0.6508444  3
   1273   1286   1268   1279     1  180.0000771  0.4184000  2
   1273   1286   1268   1279     1  0.0000000  1.6024720  3
   1277   1273   1272   1291     1  0.0000000  0.6508444  3
   1278   1271   1269   1289     1  0.0000000  4.9162000  2
   1278   1271   1269   1289     1  0.0000000  0.6024960  3
   1278   1271   1272   1291     1  0.0000000  0.6508444  3
   1279   1268   1269   1289     1  0.0000000  0.6508444  3
   1284   1279   1268   1286     1  0.0000000  4.9162000  2
   1284   1279   1268   1286     1  0.0000000  0.6024960  3
   1286   1268   1269   1289     1  0.0000000  4.9162000  2
   1286   1268   1269   1289     1  0.0000000  0.6024960  3
   1286   1273   1272   1291     1  0.0000000  0.6508444  3
   1292   1293   1295   1296     1  180.0000771  0.8368000  1
   1292   1293   1295   1296     1  180.0000771  1.0460000  2
   1292   1293   1295   1296     1  0.0000000  0.7531200  3
   1292   1293   1295   1302     1  0.0000000  0.6508444  3
   1292   1310   1297   1296     1  180.0000771  0.4184000  2
   1292   1310   1297   1296     1  0.0000000  1.6024720  3
   1292   1310   1297   1301     1  0.0000000  1.6038667  3
   1293   1292   1303   1308     1  0.0000000  0.6508444  3
   1293   1292   1310   1297     1  180.0000771  0.4184000  2
   1293   1292   1310   1297     1  0.0000000  1.6024720  3
   1293   1295   1296   1297     1  180.0000771  0.8368000  1
   1293   1295   1296   1297     1  180.0000771  1.0460000  2
   1293   1295   1296   1297     1  0.0000000  0.7531200  3
   1293   1295   1296   1315     1  0.0000000  0.6508444  3
   1295   1293   1292   1303     1  180.0000771  0.8368000  1
   1295   1293   1292   1303     1  180.0000771  1.0460000  2
   1295   1293   1292   1303     1  0.0000000  0.7531200  3
   1295   1293   1292   1310     1  0.0000000  0.6508444  3
   1295   1296   1297   1301     1  0.0000000  0.6508444  3
   1295   1296   1297   1310     1  0.0000000  0.6508444  3
   1296   1295   1293   1313     1  0.0000000  0.6508444  3
   1297   1296   1295   1302     1  0.0000000  0.6508444  3
   1297   1310   1292   1303     1  180.0000771  0.4184000  2
   1297   1310   1292   1303     1  0.0000000  1.6024720  3
   1301   1297   1296   1315     1  0.0000000  0.6508444  3
   1302   1295   1293   1313     1  0.0000000  4.9162000  2
   1302   1295   1293   1313     1  0.0000000  0.6024960  3
   1302   1295   1296   1315     1  0.0000000  0.6508444  3
   1303   1292   1293   1313     1  0.0000000  0.6508444  3
   1308   1303   1292   1310     1  0.0000000  4.9162000  2
   1308   1303   1292   1310     1  0.0000000  0.6024960  3
   1310   1292   1293   1313     1  0.0000000  4.9162000  2
   1310   1292   1293   1313     1  0.0000000  0.6024960  3
   1310   1297   1296   1315     1  0.0000000  0.6508444  3
   1317   1319   1321   1325     1  0.0000000  0.6508444  3
   1319   1321   1325   1326     1  0.0000000  0.6508444  3
   1319   1321   1325   1327     1  0.0000000  0.6508444  3
   1321   1325   1326   1337     1  0.0000000  0.6508444  3
   1321   1325   1327   1329     1  0.0000000  0.6508444  3
   1325   1326   1337   1340     1  0.0000000  0.6508444  3
   1325   1327   1329   1333     1  0.0000000  0.6508444  3
   1326   1337   1340   1341     1  180.0000771  0.0000000  2
   1326   1337   1340   1389     1  180.0000771  0.0000000  2
   1326   1325   1327   1329     1  0.0000000  0.6508444  3
   1327   1329   1333   1334     1  180.0000771  0.0000000  2
   1327   1329   1333   1365     1  180.0000771  0.0000000  2
   1327   1325   1326   1337     1  0.0000000  0.6508444  3
   1329   1333   1365   1346     1  180.0000771  6.0668000  2
   1329   1333   1365   1346     1  180.0000771  1.4644000  4
   1333   1365   1346   1347     1  0.0000000  1.2552000  3
   1333   1365   1346   1345     1  0.0000000  1.2552000  3
   1334   1333   1365   1346     1  180.0000771  6.0668000  2
   1334   1333   1365   1346     1  180.0000771  1.4644000  4
   1337   1340   1389   1370     1  180.0000771  6.0668000  2
   1337   1340   1389   1370     1  180.0000771  1.4644000  4
   1340   1389   1370   1371     1  0.0000000  1.2552000  3
   1340   1389   1370   1369     1  0.0000000  1.2552000  3
   1341   1340   1389   1370     1  180.0000771  6.0668000  2
   1341   1340   1389   1370     1  180.0000771  1.4644000  4
   1342   1343   1345   1346     1  180.0000771  0.8368000  1
   1342   1343   1345   1346     1  180.0000771  1.0460000  2
   1342   1343   1345   1346     1  0.0000000  0.7531200  3
   1342   1343   1345   1352     1  0.0000000  0.6508444  3
   1342   1360   1347   1351     1  0.0000000  1.6038667  3
   1342   1360   1347   1346     1  180.0000771  0.4184000  2
   1342   1360   1347   1346     1  0.0000000  1.6024720  3
   1343   1345   1346   1347     1  180.0000771  0.8368000  1
   1343   1345   1346   1347     1  180.0000771  1.0460000  2
   1343   1345   1346   1347     1  0.0000000  0.7531200  3
   1343   1345   1346   1365     1  0.0000000  0.6508444  3
   1343   1342   1353   1358     1  0.0000000  0.6508444  3
   1343   1342   1360   1347     1  180.0000771  0.4184000  2
   1343   1342   1360   1347     1  0.0000000  1.6024720  3
   1345   1346   1347   1351     1  0.0000000  0.6508444  3
   1345   1346   1347   1360     1  0.0000000  0.6508444  3
   1345   1343   1342   1353     1  180.0000771  0.8368000  1
   1345   1343   1342   1353     1  180.0000771  1.0460000  2
   1345   1343   1342   1353     1  0.0000000  0.7531200  3
   1345   1343   1342   1360     1  0.0000000  0.6508444  3
   1346   1345   1343   1363     1  0.0000000  0.6508444  3
   1347   1360   1342   1353     1  180.0000771  0.4184000  2
   1347   1360   1342   1353     1  0.0000000  1.6024720  3
   1347   1346   1345   1352     1  0.0000000  0.6508444  3
   1351   1347   1346   1365     1  0.0000000  0.6508444  3
   1352   1345   1346   1365     1  0.0000000  0.6508444  3
   1352   1345   1343   1363     1  0.0000000  4.9162000  2
   1352   1345   1343   1363     1  0.0000000  0.6024960  3
   1353   1342   1343   1363     1  0.0000000  0.6508444  3
   1358   1353   1342   1360     1  0.0000000  4.9162000  2
   1358   1353   1342   1360     1  0.0000000  0.6024960  3
   1360   1347   1346   1365     1  0.0000000  0.6508444  3
   1360   1342   1343   1363     1  0.0000000  4.9162000  2
   1360   1342   1343   1363     1  0.0000000  0.6024960  3
   1366   1367   1369   1370     1  180.0000771  0.8368000  1
   1366   1367   1369   1370     1  180.0000771  1.0460000  2
   1366   1367   1369   1370     1  0.0000000  0.7531200  3
   1366   1367   1369   1376     1  0.0000000  0.6508444  3
   1366   1384   1371   1375     1  0.0000000  1.6038667  3
   1366   1384   1371   1370     1  180.0000771  0.4184000  2
   1366   1384   1371   1370     1  0.0000000  1.6024720  3
   1367   1369   1370   1371     1  180.0000771  0.8368000  1
   1367   1369   1370   1371     1  180.0000771  1.0460000  2
   1367   1369   1370   1371     1  0.0000000  0.7531200  3
   1367   1369   1370   1389     1  0.0000000  0.6508444  3
   1367   1366   1377   1382     1  0.0000000  0.6508444  3
   1367   1366   1384   1371     1  180.0000771  0.4184000  2
   1367   1366   1384   1371     1  0.0000000  1.6024720  3
   1369   1370   1371   1375     1  0.0000000  0.6508444  3
   1369   1370   1371   1384     1  0.0000000  0.6508444  3
   1369   1367   1366   1377     1  180.0000771  0.8368000  1
   1369   1367   1366   1377     1  180.0000771  1.0460000  2
   1369   1367   1366   1377     1  0.0000000  0.7531200  3
   1369   1367   1366   1384     1  0.0000000  0.6508444  3
   1370   1369   1367   1387     1  0.0000000  0.6508444  3
   1371   1384   1366   1377     1  180.0000771  0.4184000  2
   1371   1384   1366   1377     1  0.0000000  1.6024720  3
   1371   1370   1369   1376     1  0.0000000  0.6508444  3
   1375   1371   1370   1389     1  0.0000000  0.6508444  3
   1376   1369   1370   1389     1  0.0000000  0.6508444  3
   1376   1369   1367   1387     1  0.0000000  4.9162000  2
   1376   1369   1367   1387     1  0.0000000  0.6024960  3
   1377   1366   1367   1387     1  0.0000000  0.6508444  3
   1382   1377   1366   1384     1  0.0000000  4.9162000  2
   1382   1377   1366   1384     1  0.0000000  0.6024960  3
   1384   1371   1370   1389     1  0.0000000  0.6508444  3
   1384   1366   1367   1387     1  0.0000000  4.9162000  2
   1384   1366   1367   1387     1  0.0000000  0.6024960  3
   1391   1393   1395   1399     1  0.0000000  0.6508444  3
   1393   1395   1399   1400     1  0.0000000  0.6508444  3
   1393   1395   1399   1401     1  0.0000000  0.6508444  3
   1395   1399   1400   1411     1  0.0000000  0.6508444  3
   1395   1399   1401   1403     1  0.0000000  0.6508444  3
   1399   1400   1411   1414     1  0.0000000  0.6508444  3
   1399   1401   1403   1407     1  0.0000000  0.6508444  3
   1400   1399   1401   1403     1  0.0000000  0.6508444  3
   1400   1411   1414   1415     1  180.0000771  0.0000000  2
   1400   1411   1414   1463     1  180.0000771  0.0000000  2
   1401   1399   1400   1411     1  0.0000000  0.6508444  3
   1401   1403   1407   1408     1  180.0000771  0.0000000  2
   1401   1403   1407   1439     1  180.0000771  0.0000000  2
   1403   1407   1439   1420     1  180.0000771  6.0668000  2
   1403   1407   1439   1420     1  180.0000771  1.4644000  4
   1407   1439   1420   1419     1  0.0000000  1.2552000  3
   1407   1439   1420   1421     1  0.0000000  1.2552000  3
   1408   1407   1439   1420     1  180.0000771  6.0668000  2
   1408   1407   1439   1420     1  180.0000771  1.4644000  4
   1411   1414   1463   1444     1  180.0000771  6.0668000  2
   1411   1414   1463   1444     1  180.0000771  1.4644000  4
   1414   1463   1444   1443     1  0.0000000  1.2552000  3
   1414   1463   1444   1445     1  0.0000000  1.2552000  3
   1415   1414   1463   1444     1  180.0000771  6.0668000  2
   1415   1414   1463   1444     1  180.0000771  1.4644000  4
   1416   1417   1419   1420     1  180.0000771  0.8368000  1
   1416   1417   1419   1420     1  180.0000771  1.0460000  2
   1416   1417   1419   1420     1  0.0000000  0.7531200  3
   1416   1417   1419   1426     1  0.0000000  0.6508444  3
   1416   1434   1421   1420     1  180.0000771  0.4184000  2
   1416   1434   1421   1420     1  0.0000000  1.6024720  3
   1416   1434   1421   1425     1  0.0000000  1.6038667  3
   1417   1416   1427   1432     1  0.0000000  0.6508444  3
   1417   1416   1434   1421     1  180.0000771  0.4184000  2
   1417   1416   1434   1421     1  0.0000000  1.6024720  3
   1417   1419   1420   1421     1  180.0000771  0.8368000  1
   1417   1419   1420   1421     1  180.0000771  1.0460000  2
   1417   1419   1420   1421     1  0.0000000  0.7531200  3
   1417   1419   1420   1439     1  0.0000000  0.6508444  3
   1419   1417   1416   1427     1  180.0000771  0.8368000  1
   1419   1417   1416   1427     1  180.0000771  1.0460000  2
   1419   1417   1416   1427     1  0.0000000  0.7531200  3
   1419   1417   1416   1434     1  0.0000000  0.6508444  3
   1419   1420   1421   1425     1  0.0000000  0.6508444  3
   1419   1420   1421   1434     1  0.0000000  0.6508444  3
   1420   1419   1417   1437     1  0.0000000  0.6508444  3
   1421   1420   1419   1426     1  0.0000000  0.6508444  3
   1421   1434   1416   1427     1  180.0000771  0.4184000  2
   1421   1434   1416   1427     1  0.0000000  1.6024720  3
   1425   1421   1420   1439     1  0.0000000  0.6508444  3
   1426   1419   1417   1437     1  0.0000000  4.9162000  2
   1426   1419   1417   1437     1  0.0000000  0.6024960  3
   1426   1419   1420   1439     1  0.0000000  0.6508444  3
   1427   1416   1417   1437     1  0.0000000  0.6508444  3
   1432   1427   1416   1434     1  0.0000000  4.9162000  2
   1432   1427   1416   1434     1  0.0000000  0.6024960  3
   1434   1416   1417   1437     1  0.0000000  4.9162000  2
   1434   1416   1417   1437     1  0.0000000  0.6024960  3
   1434   1421   1420   1439     1  0.0000000  0.6508444  3
   1440   1441   1443   1444     1  180.0000771  0.8368000  1
   1440   1441   1443   1444     1  180.0000771  1.0460000  2
   1440   1441   1443   1444     1  0.0000000  0.7531200  3
   1440   1441   1443   1450     1  0.0000000  0.6508444  3
   1440   1458   1445   1444     1  180.0000771  0.4184000  2
   1440   1458   1445   1444     1  0.0000000  1.6024720  3
   1440   1458   1445   1449     1  0.0000000  1.6038667  3
   1441   1440   1451   1456     1  0.0000000  0.6508444  3
   1441   1440   1458   1445     1  180.0000771  0.4184000  2
   1441   1440   1458   1445     1  0.0000000  1.6024720  3
   1441   1443   1444   1445     1  180.0000771  0.8368000  1
   1441   1443   1444   1445     1  180.0000771  1.0460000  2
   1441   1443   1444   1445     1  0.0000000  0.7531200  3
   1441   1443   1444   1463     1  0.0000000  0.6508444  3
   1443   1441   1440   1451     1  180.0000771  0.8368000  1
   1443   1441   1440   1451     1  180.0000771  1.0460000  2
   1443   1441   1440   1451     1  0.0000000  0.7531200  3
   1443   1441   1440   1458     1  0.0000000  0.6508444  3
   1443   1444   1445   1449     1  0.0000000  0.6508444  3
   1443   1444   1445   1458     1  0.0000000  0.6508444  3
   1444   1443   1441   1461     1  0.0000000  0.6508444  3
   1445   1444   1443   1450     1  0.0000000  0.6508444  3
   1445   1458   1440   1451     1  180.0000771  0.4184000  2
   1445   1458   1440   1451     1  0.0000000  1.6024720  3
   1449   1445   1444   1463     1  0.0000000  0.6508444  3
   1450   1443   1441   1461     1  0.0000000  4.9162000  2
   1450   1443   1441   1461     1  0.0000000  0.6024960  3
   1450   1443   1444   1463     1  0.0000000  0.6508444  3
   1451   1440   1441   1461     1  0.0000000  0.6508444  3
   1456   1451   1440   1458     1  0.0000000  4.9162000  2
   1456   1451   1440   1458     1  0.0000000  0.6024960  3
   1458   1440   1441   1461     1  0.0000000  4.9162000  2
   1458   1440   1441   1461     1  0.0000000  0.6024960  3
   1458   1445   1444   1463     1  0.0000000  0.6508444  3
   1465   1467   1469   1473     1  0.0000000  0.6508444  3
   1467   1469   1473   1474     1  0.0000000  0.6508444  3
   1467   1469   1473   1475     1  0.0000000  0.6508444  3
   1469   1473   1474   1485     1  0.0000000  0.6508444  3
   1469   1473   1475   1477     1  0.0000000  0.6508444  3
   1473   1474   1485   1488     1  0.0000000  0.6508444  3
   1473   1475   1477   1481     1  0.0000000  0.6508444  3
   1474   1485   1488   1489     1  180.0000771  0.0000000  2
   1474   1485   1488   1537     1  180.0000771  0.0000000  2
   1474   1473   1475   1477     1  0.0000000  0.6508444  3
   1475   1477   1481   1482     1  180.0000771  0.0000000  2
   1475   1477   1481   1513     1  180.0000771  0.0000000  2
   1475   1473   1474   1485     1  0.0000000  0.6508444  3
   1477   1481   1513   1494     1  180.0000771  6.0668000  2
   1477   1481   1513   1494     1  180.0000771  1.4644000  4
   1481   1513   1494   1495     1  0.0000000  1.2552000  3
   1481   1513   1494   1493     1  0.0000000  1.2552000  3
   1482   1481   1513   1494     1  180.0000771  6.0668000  2
   1482   1481   1513   1494     1  180.0000771  1.4644000  4
   1485   1488   1537   1518     1  180.0000771  6.0668000  2
   1485   1488   1537   1518     1  180.0000771  1.4644000  4
   1488   1537   1518   1519     1  0.0000000  1.2552000  3
   1488   1537   1518   1517     1  0.0000000  1.2552000  3
   1489   1488   1537   1518     1  180.0000771  6.0668000  2
   1489   1488   1537   1518     1  180.0000771  1.4644000  4
   1490   1491   1493   1494     1  180.0000771  0.8368000  1
   1490   1491   1493   1494     1  180.0000771  1.0460000  2
   1490   1491   1493   1494     1  0.0000000  0.7531200  3
   1490   1491   1493   1500     1  0.0000000  0.6508444  3
   1490   1508   1495   1499     1  0.0000000  1.6038667  3
   1490   1508   1495   1494     1  180.0000771  0.4184000  2
   1490   1508   1495   1494     1  0.0000000  1.6024720  3
   1491   1493   1494   1495     1  180.0000771  0.8368000  1
   1491   1493   1494   1495     1  180.0000771  1.0460000  2
   1491   1493   1494   1495     1  0.0000000  0.7531200  3
   1491   1493   1494   1513     1  0.0000000  0.6508444  3
   1491   1490   1501   1506     1  0.0000000  0.6508444  3
   1491   1490   1508   1495     1  180.0000771  0.4184000  2
   1491   1490   1508   1495     1  0.0000000  1.6024720  3
   1493   1494   1495   1499     1  0.0000000  0.6508444  3
   1493   1494   1495   1508     1  0.0000000  0.6508444  3
   1493   1491   1490   1501     1  180.0000771  0.8368000  1
   1493   1491   1490   1501     1  180.0000771  1.0460000  2
   1493   1491   1490   1501     1  0.0000000  0.7531200  3
   1493   1491   1490   1508     1  0.0000000  0.6508444  3
   1494   1493   1491   1511     1  0.0000000  0.6508444  3
   1495   1508   1490   1501     1  180.0000771  0.4184000  2
   1495   1508   1490   1501     1  0.0000000  1.6024720  3
   1495   1494   1493   1500     1  0.0000000  0.6508444  3
   1499   1495   1494   1513     1  0.0000000  0.6508444  3
   1500   1493   1494   1513     1  0.0000000  0.6508444  3
   1500   1493   1491   1511     1  0.0000000  4.9162000  2
   1500   1493   1491   1511     1  0.0000000  0.6024960  3
   1501   1490   1491   1511     1  0.0000000  0.6508444  3
   1506   1501   1490   1508     1  0.0000000  4.9162000  2
   1506   1501   1490   1508     1  0.0000000  0.6024960  3
   1508   1495   1494   1513     1  0.0000000  0.6508444  3
   1508   1490   1491   1511     1  0.0000000  4.9162000  2
   1508   1490   1491   1511     1  0.0000000  0.6024960  3
   1514   1515   1517   1518     1  180.0000771  0.8368000  1
   1514   1515   1517   1518     1  180.0000771  1.0460000  2
   1514   1515   1517   1518     1  0.0000000  0.7531200  3
   1514   1515   1517   1524     1  0.0000000  0.6508444  3
   1514   1532   1519   1523     1  0.0000000  1.6038667  3
   1514   1532   1519   1518     1  180.0000771  0.4184000  2
   1514   1532   1519   1518     1  0.0000000  1.6024720  3
   1515   1517   1518   1519     1  180.0000771  0.8368000  1
   1515   1517   1518   1519     1  180.0000771  1.0460000  2
   1515   1517   1518   1519     1  0.0000000  0.7531200  3
   1515   1517   1518   1537     1  0.0000000  0.6508444  3
   1515   1514   1525   1530     1  0.0000000  0.6508444  3
   1515   1514   1532   1519     1  180.0000771  0.4184000  2
   1515   1514   1532   1519     1  0.0000000  1.6024720  3
   1517   1518   1519   1523     1  0.0000000  0.6508444  3
   1517   1518   1519   1532     1  0.0000000  0.6508444  3
   1517   1515   1514   1525     1  180.0000771  0.8368000  1
   1517   1515   1514   1525     1  180.0000771  1.0460000  2
   1517   1515   1514   1525     1  0.0000000  0.7531200  3
   1517   1515   1514   1532     1  0.0000000  0.6508444  3
   1518   1517   1515   1535     1  0.0000000  0.6508444  3
   1519   1532   1514   1525     1  180.0000771  0.4184000  2
   1519   1532   1514   1525     1  0.0000000  1.6024720  3
   1519   1518   1517   1524     1  0.0000000  0.6508444  3
   1523   1519   1518   1537     1  0.0000000  0.6508444  3
   1524   1517   1518   1537     1  0.0000000  0.6508444  3
   1524   1517   1515   1535     1  0.0000000  4.9162000  2
   1524   1517   1515   1535     1  0.0000000  0.6024960  3
   1525   1514   1515   1535     1  0.0000000  0.6508444  3
   1530   1525   1514   1532     1  0.0000000  4.9162000  2
   1530   1525   1514   1532     1  0.0000000  0.6024960  3
   1532   1519   1518   1537     1  0.0000000  0.6508444  3
   1532   1514   1515   1535     1  0.0000000  4.9162000  2
   1532   1514   1515   1535     1  0.0000000  0.6024960  3
      9     52     10     18     4  180.0000771  43.9320000  2
     11     78     12     17     4  180.0000771  43.9320000  2
     13    104     14     20     4  180.0000771  43.9320000  2
     15    130     16     19     4  180.0000771  43.9320000  2
     46    156     47     53     4  180.0000771  43.9320000  2
     48    182     49     54     4  180.0000771  43.9320000  2
     72    208     73     79     4  180.0000771  43.9320000  2
     74    234     75     80     4  180.0000771  43.9320000  2
     98    260     99    105     4  180.0000771  43.9320000  2
    100    286    101    106     4  180.0000771  43.9320000  2
    124    312    125    131     4  180.0000771  43.9320000  2
    126    338    127    132     4  180.0000771  43.9320000  2
    150    355    151    157     4  180.0000771  43.9320000  2
    152    429    153    158     4  180.0000771  43.9320000  2
    176    503    177    183     4  180.0000771  43.9320000  2
    178    577    179    184     4  180.0000771  43.9320000  2
    202    651    203    209     4  180.0000771  43.9320000  2
    204    725    205    210     4  180.0000771  43.9320000  2
    228    799    229    235     4  180.0000771  43.9320000  2
    230    873    231    236     4  180.0000771  43.9320000  2
    254    947    255    261     4  180.0000771  43.9320000  2
    256   1021    257    262     4  180.0000771  43.9320000  2
    280   1095    281    287     4  180.0000771  43.9320000  2
    282   1169    283    288     4  180.0000771  43.9320000  2
    306   1243    307    313     4  180.0000771  43.9320000  2
    308   1317    309    314     4  180.0000771  43.9320000  2
    332   1391    333    339     4  180.0000771  43.9320000  2
    334   1465    335    340     4  180.0000771  43.9320000  2
    367    403    371    372     4  180.0000771  43.9320000  2
    375    427    378    379     4  180.0000771  43.9320000  2
    441    477    445    446     4  180.0000771  43.9320000  2
    449    501    452    453     4  180.0000771  43.9320000  2
    515    551    519    520     4  180.0000771  43.9320000  2
    523    575    526    527     4  180.0000771  43.9320000  2
    589    625    593    594     4  180.0000771  43.9320000  2
    597    649    600    601     4  180.0000771  43.9320000  2
    663    699    667    668     4  180.0000771  43.9320000  2
    671    723    674    675     4  180.0000771  43.9320000  2
    737    773    741    742     4  180.0000771  43.9320000  2
    745    797    748    749     4  180.0000771  43.9320000  2
    811    847    815    816     4  180.0000771  43.9320000  2
    819    871    822    823     4  180.0000771  43.9320000  2
    885    921    889    890     4  180.0000771  43.9320000  2
    893    945    896    897     4  180.0000771  43.9320000  2
    959    995    963    964     4  180.0000771  43.9320000  2
    967   1019    970    971     4  180.0000771  43.9320000  2
   1033   1069   1037   1038     4  180.0000771  43.9320000  2
   1041   1093   1044   1045     4  180.0000771  43.9320000  2
   1107   1143   1111   1112     4  180.0000771  43.9320000  2
   1115   1167   1118   1119     4  180.0000771  43.9320000  2
   1181   1217   1185   1186     4  180.0000771  43.9320000  2
   1189   1241   1192   1193     4  180.0000771  43.9320000  2
   1255   1291   1259   1260     4  180.0000771  43.9320000  2
   1263   1315   1266   1267     4  180.0000771  43.9320000  2
   1329   1365   1333   1334     4  180.0000771  43.9320000  2
   1337   1389   1340   1341     4  180.0000771  43.9320000  2
   1403   1439   1407   1408     4  180.0000771  43.9320000  2
   1411   1463   1414   1415     4  180.0000771  43.9320000  2
   1477   1513   1481   1482     4  180.0000771  43.9320000  2
   1485   1537   1488   1489     4  180.0000771  43.9320000  2
      1      2      3     23     1  0.0000000  0.6508444  3
      1      2      3     24     1  0.0000000  0.6508444  3
      1      7     13     37     1  0.0000000  0.6508444  3
      1      7     13     38     1  0.0000000  0.6508444  3
      1      8     15     39     1  0.0000000  0.6508444  3
      1      8     15     40     1  0.0000000  0.6508444  3
      2      1      7     29     1  0.0000000  0.6508444  3
      2      1      7     30     1  0.0000000  0.6508444  3
      2      1      8     31     1  0.0000000  0.6508444  3
      2      1      8     32     1  0.0000000  0.6508444  3
      2      3      4     42     1  0.0000000  0.6508444  3
     41      1      2      3     1  0.0000000  0.6508444  3
      3      4      5     25     1  0.0000000  0.6508444  3
      3      4      5     26     1  0.0000000  0.6508444  3
      3      4      6     27     1  0.0000000  0.6508444  3
      3      4      6     28     1  0.0000000  0.6508444  3
      4      3      2     21     1  0.0000000  0.6508444  3
      4      3      2     22     1  0.0000000  0.6508444  3
      4      5     11     35     1  0.0000000  0.6508444  3
      4      5     11     36     1  0.0000000  0.6508444  3
      4      6      9     33     1  0.0000000  0.6508444  3
      4      6      9     34     1  0.0000000  0.6508444  3
      5      4      3     23     1  0.0000000  0.6508444  3
      5      4      3     24     1  0.0000000  0.6508444  3
      5      4      6     27     1  0.0000000  0.6508444  3
      5      4      6     28     1  0.0000000  0.6508444  3
      6      4      3     23     1  0.0000000  0.6508444  3
      6      4      3     24     1  0.0000000  0.6508444  3
      6      4      5     25     1  0.0000000  0.6508444  3
      6      4      5     26     1  0.0000000  0.6508444  3
      7      1      2     21     1  0.0000000  0.6508444  3
      7      1      2     22     1  0.0000000  0.6508444  3
      7      1      8     31     1  0.0000000  0.6508444  3
      7      1      8     32     1  0.0000000  0.6508444  3
      8      1      2     21     1  0.0000000  0.6508444  3
      8      1      2     22     1  0.0000000  0.6508444  3
      8      1      7     29     1  0.0000000  0.6508444  3
      8      1      7     30     1  0.0000000  0.6508444  3
      9      6      4     42     1  0.0000000  0.6508444  3
      9     10     52     67     1  180.0000771  10.4600000  2
     10      9      6     27     1  0.0000000  0.6508444  3
     10      9      6     28     1  0.0000000  0.6508444  3
     10     52     51     65     1  0.0000000  0.0000000  2
     10     52     51     66     1  0.0000000  0.0000000  2
     11      5      4     42     1  0.0000000  0.6508444  3
     11     12     78     93     1  180.0000771  10.4600000  2
     12     11      5     25     1  0.0000000  0.6508444  3
     12     11      5     26     1  0.0000000  0.6508444  3
     12     78     77     91     1  0.0000000  0.0000000  2
     12     78     77     92     1  0.0000000  0.0000000  2
     41      1      7     13     1  0.0000000  0.6508444  3
     13     14    104    119     1  180.0000771  10.4600000  2
     14     13      7     29     1  0.0000000  0.6508444  3
     14     13      7     30     1  0.0000000  0.6508444  3
     14    104    103    117     1  0.0000000  0.0000000  2
     14    104    103    118     1  0.0000000  0.0000000  2
     41      1      8     15     1  0.0000000  0.6508444  3
     15     16    130    145     1  180.0000771  10.4600000  2
     16     15      8     31     1  0.0000000  0.6508444  3
     16     15      8     32     1  0.0000000  0.6508444  3
     16    130    129    143     1  0.0000000  0.0000000  2
     16    130    129    144     1  0.0000000  0.0000000  2
     17     12     11     35     1  0.0000000  3.3472000  1
     17     12     11     35     1  0.0000000  0.0000000  2
     17     12     11     35     1  180.0000771  0.3347200  3
     17     12     11     36     1  0.0000000  3.3472000  1
     17     12     11     36     1  0.0000000  0.0000000  2
     17     12     11     36     1  180.0000771  0.3347200  3
     17     12     78     93     1  0.0000000  8.3680000  1
     17     12     78     93     1  180.0000771  10.4600000  2
     18     10      9     33     1  0.0000000  3.3472000  1
     18     10      9     33     1  0.0000000  0.0000000  2
     18     10      9     33     1  180.0000771  0.3347200  3
     18     10      9     34     1  0.0000000  3.3472000  1
     18     10      9     34     1  0.0000000  0.0000000  2
     18     10      9     34     1  180.0000771  0.3347200  3
     18     10     52     67     1  0.0000000  8.3680000  1
     18     10     52     67     1  180.0000771  10.4600000  2
     19     16     15     39     1  0.0000000  3.3472000  1
     19     16     15     39     1  0.0000000  0.0000000  2
     19     16     15     39     1  180.0000771  0.3347200  3
     19     16     15     40     1  0.0000000  3.3472000  1
     19     16     15     40     1  0.0000000  0.0000000  2
     19     16     15     40     1  180.0000771  0.3347200  3
     19     16    130    145     1  0.0000000  8.3680000  1
     19     16    130    145     1  180.0000771  10.4600000  2
     20     14     13     37     1  0.0000000  3.3472000  1
     20     14     13     37     1  0.0000000  0.0000000  2
     20     14     13     37     1  180.0000771  0.3347200  3
     20     14     13     38     1  0.0000000  3.3472000  1
     20     14     13     38     1  0.0000000  0.0000000  2
     20     14     13     38     1  180.0000771  0.3347200  3
     20     14    104    119     1  0.0000000  8.3680000  1
     20     14    104    119     1  180.0000771  10.4600000  2
     41      1      2     21     1  0.0000000  0.6508444  3
     21      2      3     23     1  0.0000000  0.6508444  3
     21      2      3     24     1  0.0000000  0.6508444  3
     41      1      2     22     1  0.0000000  0.6508444  3
     22      2      3     23     1  0.0000000  0.6508444  3
     22      2      3     24     1  0.0000000  0.6508444  3
     23      3      4     42     1  0.0000000  0.6508444  3
     24      3      4     42     1  0.0000000  0.6508444  3
     25      5      4     42     1  0.0000000  0.6508444  3
     25      5     11     35     1  0.0000000  0.6508444  3
     25      5     11     36     1  0.0000000  0.6508444  3
     26      5      4     42     1  0.0000000  0.6508444  3
     26      5     11     35     1  0.0000000  0.6508444  3
     26      5     11     36     1  0.0000000  0.6508444  3
     27      6      4     42     1  0.0000000  0.6508444  3
     27      6      9     33     1  0.0000000  0.6508444  3
     27      6      9     34     1  0.0000000  0.6508444  3
     28      6      4     42     1  0.0000000  0.6508444  3
     28      6      9     33     1  0.0000000  0.6508444  3
     28      6      9     34     1  0.0000000  0.6508444  3
     41      1      7     29     1  0.0000000  0.6508444  3
     29      7     13     37     1  0.0000000  0.6508444  3
     29      7     13     38     1  0.0000000  0.6508444  3
     41      1      7     30     1  0.0000000  0.6508444  3
     30      7     13     37     1  0.0000000  0.6508444  3
     30      7     13     38     1  0.0000000  0.6508444  3
     41      1      8     31     1  0.0000000  0.6508444  3
     31      8     15     39     1  0.0000000  0.6508444  3
     31      8     15     40     1  0.0000000  0.6508444  3
     41      1      8     32     1  0.0000000  0.6508444  3
     32      8     15     39     1  0.0000000  0.6508444  3
     32      8     15     40     1  0.0000000  0.6508444  3
     33      9     10     52     1  180.0000771  0.0000000  2
     34      9     10     52     1  180.0000771  0.0000000  2
     35     11     12     78     1  180.0000771  0.0000000  2
     36     11     12     78     1  180.0000771  0.0000000  2
     37     13     14    104     1  180.0000771  0.0000000  2
     38     13     14    104     1  180.0000771  0.0000000  2
     39     15     16    130     1  180.0000771  0.0000000  2
     40     15     16    130     1  180.0000771  0.0000000  2
     43     44     46     59     1  0.0000000  0.6508444  3
     43     44     46     60     1  0.0000000  0.6508444  3
     43     45     48     61     1  0.0000000  0.6508444  3
     43     45     48     62     1  0.0000000  0.6508444  3
     43     50     51     65     1  0.0000000  0.6508444  3
     43     50     51     66     1  0.0000000  0.6508444  3
     44     43     45     57     1  0.0000000  0.6508444  3
     44     43     45     58     1  0.0000000  0.6508444  3
     44     43     50     63     1  0.0000000  0.6508444  3
     44     43     50     64     1  0.0000000  0.6508444  3
     45     43     44     55     1  0.0000000  0.6508444  3
     45     43     44     56     1  0.0000000  0.6508444  3
     45     43     50     63     1  0.0000000  0.6508444  3
     45     43     50     64     1  0.0000000  0.6508444  3
     46     44     43     68     1  0.0000000  0.6508444  3
     46     47    156    171     1  180.0000771  10.4600000  2
     47     46     44     55     1  0.0000000  0.6508444  3
     47     46     44     56     1  0.0000000  0.6508444  3
     47    156    155    169     1  0.0000000  0.0000000  2
     47    156    155    170     1  0.0000000  0.0000000  2
     48     45     43     68     1  0.0000000  0.6508444  3
     48     49    182    197     1  180.0000771  10.4600000  2
     49     48     45     57     1  0.0000000  0.6508444  3
     49     48     45     58     1  0.0000000  0.6508444  3
     49    182    181    195     1  0.0000000  0.0000000  2
     49    182    181    196     1  0.0000000  0.0000000  2
     50     43     44     55     1  0.0000000  0.6508444  3
     50     43     44     56     1  0.0000000  0.6508444  3
     50     43     45     57     1  0.0000000  0.6508444  3
     50     43     45     58     1  0.0000000  0.6508444  3
     50     51     52     67     1  0.0000000  0.0000000  2
     51     50     43     68     1  0.0000000  0.6508444  3
     52     51     50     63     1  0.0000000  0.6508444  3
     52     51     50     64     1  0.0000000  0.6508444  3
     53     47     46     59     1  0.0000000  3.3472000  1
     53     47     46     59     1  0.0000000  0.0000000  2
     53     47     46     59     1  180.0000771  0.3347200  3
     53     47     46     60     1  0.0000000  3.3472000  1
     53     47     46     60     1  0.0000000  0.0000000  2
     53     47     46     60     1  180.0000771  0.3347200  3
     53     47    156    171     1  0.0000000  8.3680000  1
     53     47    156    171     1  180.0000771  10.4600000  2
     54     49     48     61     1  0.0000000  3.3472000  1
     54     49     48     61     1  0.0000000  0.0000000  2
     54     49     48     61     1  180.0000771  0.3347200  3
     54     49     48     62     1  0.0000000  3.3472000  1
     54     49     48     62     1  0.0000000  0.0000000  2
     54     49     48     62     1  180.0000771  0.3347200  3
     54     49    182    197     1  0.0000000  8.3680000  1
     54     49    182    197     1  180.0000771  10.4600000  2
     55     44     43     68     1  0.0000000  0.6508444  3
     55     44     46     59     1  0.0000000  0.6508444  3
     55     44     46     60     1  0.0000000  0.6508444  3
     56     44     43     68     1  0.0000000  0.6508444  3
     56     44     46     59     1  0.0000000  0.6508444  3
     56     44     46     60     1  0.0000000  0.6508444  3
     57     45     43     68     1  0.0000000  0.6508444  3
     57     45     48     61     1  0.0000000  0.6508444  3
     57     45     48     62     1  0.0000000  0.6508444  3
     58     45     43     68     1  0.0000000  0.6508444  3
     58     45     48     61     1  0.0000000  0.6508444  3
     58     45     48     62     1  0.0000000  0.6508444  3
     59     46     47    156     1  180.0000771  0.0000000  2
     60     46     47    156     1  180.0000771  0.0000000  2
     61     48     49    182     1  180.0000771  0.0000000  2
     62     48     49    182     1  180.0000771  0.0000000  2
     63     50     43     68     1  0.0000000  0.6508444  3
     63     50     51     65     1  0.0000000  0.6508444  3
     63     50     51     66     1  0.0000000  0.6508444  3
     64     50     43     68     1  0.0000000  0.6508444  3
     64     50     51     65     1  0.0000000  0.6508444  3
     64     50     51     66     1  0.0000000  0.6508444  3
     65     51     52     67     1  0.0000000  0.0000000  2
     66     51     52     67     1  0.0000000  0.0000000  2
     69     70     72     85     1  0.0000000  0.6508444  3
     69     70     72     86     1  0.0000000  0.6508444  3
     69     71     74     87     1  0.0000000  0.6508444  3
     69     71     74     88     1  0.0000000  0.6508444  3
     69     76     77     91     1  0.0000000  0.6508444  3
     69     76     77     92     1  0.0000000  0.6508444  3
     70     69     71     83     1  0.0000000  0.6508444  3
     70     69     71     84     1  0.0000000  0.6508444  3
     70     69     76     89     1  0.0000000  0.6508444  3
     70     69     76     90     1  0.0000000  0.6508444  3
     71     69     70     81     1  0.0000000  0.6508444  3
     71     69     70     82     1  0.0000000  0.6508444  3
     71     69     76     89     1  0.0000000  0.6508444  3
     71     69     76     90     1  0.0000000  0.6508444  3
     72     70     69     94     1  0.0000000  0.6508444  3
     72     73    208    223     1  180.0000771  10.4600000  2
     73     72     70     81     1  0.0000000  0.6508444  3
     73     72     70     82     1  0.0000000  0.6508444  3
     73    208    207    221     1  0.0000000  0.0000000  2
     73    208    207    222     1  0.0000000  0.0000000  2
     74     71     69     94     1  0.0000000  0.6508444  3
     74     75    234    249     1  180.0000771  10.4600000  2
     75     74     71     83     1  0.0000000  0.6508444  3
     75     74     71     84     1  0.0000000  0.6508444  3
     75    234    233    247     1  0.0000000  0.0000000  2
     75    234    233    248     1  0.0000000  0.0000000  2
     76     69     70     81     1  0.0000000  0.6508444  3
     76     69     70     82     1  0.0000000  0.6508444  3
     76     69     71     83     1  0.0000000  0.6508444  3
     76     69     71     84     1  0.0000000  0.6508444  3
     76     77     78     93     1  0.0000000  0.0000000  2
     77     76     69     94     1  0.0000000  0.6508444  3
     78     77     76     89     1  0.0000000  0.6508444  3
     78     77     76     90     1  0.0000000  0.6508444  3
     79     73     72     85     1  0.0000000  3.3472000  1
     79     73     72     85     1  0.0000000  0.0000000  2
     79     73     72     85     1  180.0000771  0.3347200  3
     79     73     72     86     1  0.0000000  3.3472000  1
     79     73     72     86     1  0.0000000  0.0000000  2
     79     73     72     86     1  180.0000771  0.3347200  3
     79     73    208    223     1  0.0000000  8.3680000  1
     79     73    208    223     1  180.0000771  10.4600000  2
     80     75     74     87     1  0.0000000  3.3472000  1
     80     75     74     87     1  0.0000000  0.0000000  2
     80     75     74     87     1  180.0000771  0.3347200  3
     80     75     74     88     1  0.0000000  3.3472000  1
     80     75     74     88     1  0.0000000  0.0000000  2
     80     75     74     88     1  180.0000771  0.3347200  3
     80     75    234    249     1  0.0000000  8.3680000  1
     80     75    234    249     1  180.0000771  10.4600000  2
     81     70     69     94     1  0.0000000  0.6508444  3
     81     70     72     85     1  0.0000000  0.6508444  3
     81     70     72     86     1  0.0000000  0.6508444  3
     82     70     69     94     1  0.0000000  0.6508444  3
     82     70     72     85     1  0.0000000  0.6508444  3
     82     70     72     86     1  0.0000000  0.6508444  3
     83     71     69     94     1  0.0000000  0.6508444  3
     83     71     74     87     1  0.0000000  0.6508444  3
     83     71     74     88     1  0.0000000  0.6508444  3
     84     71     69     94     1  0.0000000  0.6508444  3
     84     71     74     87     1  0.0000000  0.6508444  3
     84     71     74     88     1  0.0000000  0.6508444  3
     85     72     73    208     1  180.0000771  0.0000000  2
     86     72     73    208     1  180.0000771  0.0000000  2
     87     74     75    234     1  180.0000771  0.0000000  2
     88     74     75    234     1  180.0000771  0.0000000  2
     89     76     69     94     1  0.0000000  0.6508444  3
     89     76     77     91     1  0.0000000  0.6508444  3
     89     76     77     92     1  0.0000000  0.6508444  3
     90     76     69     94     1  0.0000000  0.6508444  3
     90     76     77     91     1  0.0000000  0.6508444  3
     90     76     77     92     1  0.0000000  0.6508444  3
     91     77     78     93     1  0.0000000  0.0000000  2
     92     77     78     93     1  0.0000000  0.0000000  2
     95     96     98    111     1  0.0000000  0.6508444  3
     95     96     98    112     1  0.0000000  0.6508444  3
     95     97    100    113     1  0.0000000  0.6508444  3
     95     97    100    114     1  0.0000000  0.6508444  3
     95    102    103    117     1  0.0000000  0.6508444  3
     95    102    103    118     1  0.0000000  0.6508444  3
     96     95     97    109     1  0.0000000  0.6508444  3
     96     95     97    110     1  0.0000000  0.6508444  3
     96     95    102    115     1  0.0000000  0.6508444  3
     96     95    102    116     1  0.0000000  0.6508444  3
     97     95     96    107     1  0.0000000  0.6508444  3
     97     95     96    108     1  0.0000000  0.6508444  3
     97     95    102    115     1  0.0000000  0.6508444  3
     97     95    102    116     1  0.0000000  0.6508444  3
     98     96     95    120     1  0.0000000  0.6508444  3
     98     99    260    275     1  180.0000771  10.4600000  2
     99     98     96    107     1  0.0000000  0.6508444  3
     99     98     96    108     1  0.0000000  0.6508444  3
     99    260    259    273     1  0.0000000  0.0000000  2
     99    260    259    274     1  0.0000000  0.0000000  2
    100     97     95    120     1  0.0000000  0.6508444  3
    100    101    286    301     1  180.0000771  10.4600000  2
    101    100     97    109     1  0.0000000  0.6508444  3
    101    100     97    110     1  0.0000000  0.6508444  3
    101    286    285    299     1  0.0000000  0.0000000  2
    101    286    285    300     1  0.0000000  0.0000000  2
    102     95     96    107     1  0.0000000  0.6508444  3
    102     95     96    108     1  0.0000000  0.6508444  3
    102     95     97    109     1  0.0000000  0.6508444  3
    102     95     97    110     1  0.0000000  0.6508444  3
    102    103    104    119     1  0.0000000  0.0000000  2
    103    102     95    120     1  0.0000000  0.6508444  3
    104    103    102    115     1  0.0000000  0.6508444  3
    104    103    102    116     1  0.0000000  0.6508444  3
    105     99     98    111     1  0.0000000  3.3472000  1
    105     99     98    111     1  0.0000000  0.0000000  2
    105     99     98    111     1  180.0000771  0.3347200  3
    105     99     98    112     1  0.0000000  3.3472000  1
    105     99     98    112     1  0.0000000  0.0000000  2
    105     99     98    112     1  180.0000771  0.3347200  3
    105     99    260    275     1  0.0000000  8.3680000  1
    105     99    260    275     1  180.0000771  10.4600000  2
    106    101    100    113     1  0.0000000  3.3472000  1
    106    101    100    113     1  0.0000000  0.0000000  2
    106    101    100    113     1  180.0000771  0.3347200  3
    106    101    100    114     1  0.0000000  3.3472000  1
    106    101    100    114     1  0.0000000  0.0000000  2
    106    101    100    114     1  180.0000771  0.3347200  3
    106    101    286    301     1  0.0000000  8.3680000  1
    106    101    286    301     1  180.0000771  10.4600000  2
    107     96     95    120     1  0.0000000  0.6508444  3
    107     96     98    111     1  0.0000000  0.6508444  3
    107     96     98    112     1  0.0000000  0.6508444  3
    108     96     95    120     1  0.0000000  0.6508444  3
    108     96     98    111     1  0.0000000  0.6508444  3
    108     96     98    112     1  0.0000000  0.6508444  3
    109     97     95    120     1  0.0000000  0.6508444  3
    109     97    100    113     1  0.0000000  0.6508444  3
    109     97    100    114     1  0.0000000  0.6508444  3
    110     97     95    120     1  0.0000000  0.6508444  3
    110     97    100    113     1  0.0000000  0.6508444  3
    110     97    100    114     1  0.0000000  0.6508444  3
    111     98     99    260     1  180.0000771  0.0000000  2
    112     98     99    260     1  180.0000771  0.0000000  2
    113    100    101    286     1  180.0000771  0.0000000  2
    114    100    101    286     1  180.0000771  0.0000000  2
    115    102     95    120     1  0.0000000  0.6508444  3
    115    102    103    117     1  0.0000000  0.6508444  3
    115    102    103    118     1  0.0000000  0.6508444  3
    116    102     95    120     1  0.0000000  0.6508444  3
    116    102    103    117     1  0.0000000  0.6508444  3
    116    102    103    118     1  0.0000000  0.6508444  3
    117    103    104    119     1  0.0000000  0.0000000  2
    118    103    104    119     1  0.0000000  0.0000000  2
    121    122    124    137     1  0.0000000  0.6508444  3
    121    122    124    138     1  0.0000000  0.6508444  3
    121    123    126    139     1  0.0000000  0.6508444  3
    121    123    126    140     1  0.0000000  0.6508444  3
    121    128    129    143     1  0.0000000  0.6508444  3
    121    128    129    144     1  0.0000000  0.6508444  3
    122    121    123    135     1  0.0000000  0.6508444  3
    122    121    123    136     1  0.0000000  0.6508444  3
    122    121    128    141     1  0.0000000  0.6508444  3
    122    121    128    142     1  0.0000000  0.6508444  3
    123    121    122    133     1  0.0000000  0.6508444  3
    123    121    122    134     1  0.0000000  0.6508444  3
    123    121    128    141     1  0.0000000  0.6508444  3
    123    121    128    142     1  0.0000000  0.6508444  3
    124    122    121    146     1  0.0000000  0.6508444  3
    124    125    312    327     1  180.0000771  10.4600000  2
    125    124    122    133     1  0.0000000  0.6508444  3
    125    124    122    134     1  0.0000000  0.6508444  3
    125    312    311    325     1  0.0000000  0.0000000  2
    125    312    311    326     1  0.0000000  0.0000000  2
    126    123    121    146     1  0.0000000  0.6508444  3
    126    127    338    353     1  180.0000771  10.4600000  2
    127    126    123    135     1  0.0000000  0.6508444  3
    127    126    123    136     1  0.0000000  0.6508444  3
    127    338    337    351     1  0.0000000  0.0000000  2
    127    338    337    352     1  0.0000000  0.0000000  2
    128    121    122    133     1  0.0000000  0.6508444  3
    128    121    122    134     1  0.0000000  0.6508444  3
    128    121    123    135     1  0.0000000  0.6508444  3
    128    121    123    136     1  0.0000000  0.6508444  3
    128    129    130    145     1  0.0000000  0.0000000  2
    129    128    121    146     1  0.0000000  0.6508444  3
    130    129    128    141     1  0.0000000  0.6508444  3
    130    129    128    142     1  0.0000000  0.6508444  3
    131    125    124    137     1  0.0000000  3.3472000  1
    131    125    124    137     1  0.0000000  0.0000000  2
    131    125    124    137     1  180.0000771  0.3347200  3
    131    125    124    138     1  0.0000000  3.3472000  1
    131    125    124    138     1  0.0000000  0.0000000  2
    131    125    124    138     1  180.0000771  0.3347200  3
    131    125    312    327     1  0.0000000  8.3680000  1
    131    125    312    327     1  180.0000771  10.4600000  2
    132    127    126    139     1  0.0000000  3.3472000  1
    132    127    126    139     1  0.0000000  0.0000000  2
    132    127    126    139     1  180.0000771  0.3347200  3
    132    127    126    140     1  0.0000000  3.3472000  1
    132    127    126    140     1  0.0000000  0.0000000  2
    132    127    126    140     1  180.0000771  0.3347200  3
    132    127    338    353     1  0.0000000  8.3680000  1
    132    127    338    353     1  180.0000771  10.4600000  2
    133    122    121    146     1  0.0000000  0.6508444  3
    133    122    124    137     1  0.0000000  0.6508444  3
    133    122    124    138     1  0.0000000  0.6508444  3
    134    122    121    146     1  0.0000000  0.6508444  3
    134    122    124    137     1  0.0000000  0.6508444  3
    134    122    124    138     1  0.0000000  0.6508444  3
    135    123    121    146     1  0.0000000  0.6508444  3
    135    123    126    139     1  0.0000000  0.6508444  3
    135    123    126    140     1  0.0000000  0.6508444  3
    136    123    121    146     1  0.0000000  0.6508444  3
    136    123    126    139     1  0.0000000  0.6508444  3
    136    123    126    140     1  0.0000000  0.6508444  3
    137    124    125    312     1  180.0000771  0.0000000  2
    138    124    125    312     1  180.0000771  0.0000000  2
    139    126    127    338     1  180.0000771  0.0000000  2
    140    126    127    338     1  180.0000771  0.0000000  2
    141    128    121    146     1  0.0000000  0.6508444  3
    141    128    129    143     1  0.0000000  0.6508444  3
    141    128    129    144     1  0.0000000  0.6508444  3
    142    128    121    146     1  0.0000000  0.6508444  3
    142    128    129    143     1  0.0000000  0.6508444  3
    142    128    129    144     1  0.0000000  0.6508444  3
    143    129    130    145     1  0.0000000  0.0000000  2
    144    129    130    145     1  0.0000000  0.0000000  2
    147    148    150    163     1  0.0000000  0.6508444  3
    147    148    150    164     1  0.0000000  0.6508444  3
    147    149    152    165     1  0.0000000  0.6508444  3
    147    149    152    166     1  0.0000000  0.6508444  3
    147    154    155    169     1  0.0000000  0.6508444  3
    147    154    155    170     1  0.0000000  0.6508444  3
    148    147    149    161     1  0.0000000  0.6508444  3
    148    147    149    162     1  0.0000000  0.6508444  3
    148    147    154    167     1  0.0000000  0.6508444  3
    148    147    154    168     1  0.0000000  0.6508444  3
    149    147    148    159     1  0.0000000  0.6508444  3
    149    147    148    160     1  0.0000000  0.6508444  3
    149    147    154    167     1  0.0000000  0.6508444  3
    149    147    154    168     1  0.0000000  0.6508444  3
    150    148    147    172     1  0.0000000  0.6508444  3
    150    151    355    356     1  180.0000771  10.4600000  2
    151    150    148    159     1  0.0000000  0.6508444  3
    151    150    148    160     1  0.0000000  0.6508444  3
    151    355    357    358     1  0.0000000  0.0000000  2
    151    355    357    360     1  0.0000000  0.0000000  2
    152    149    147    172     1  0.0000000  0.6508444  3
    152    153    429    430     1  180.0000771  10.4600000  2
    153    152    149    161     1  0.0000000  0.6508444  3
    153    152    149    162     1  0.0000000  0.6508444  3
    153    429    431    432     1  0.0000000  0.0000000  2
    153    429    431    434     1  0.0000000  0.0000000  2
    154    147    148    159     1  0.0000000  0.6508444  3
    154    147    148    160     1  0.0000000  0.6508444  3
    154    147    149    161     1  0.0000000  0.6508444  3
    154    147    149    162     1  0.0000000  0.6508444  3
    154    155    156    171     1  0.0000000  0.0000000  2
    155    154    147    172     1  0.0000000  0.6508444  3
    156    155    154    167     1  0.0000000  0.6508444  3
    156    155    154    168     1  0.0000000  0.6508444  3
    157    151    150    163     1  0.0000000  3.3472000  1
    157    151    150    163     1  0.0000000  0.0000000  2
    157    151    150    163     1  180.0000771  0.3347200  3
    157    151    150    164     1  0.0000000  3.3472000  1
    157    151    150    164     1  0.0000000  0.0000000  2
    157    151    150    164     1  180.0000771  0.3347200  3
    157    151    355    356     1  0.0000000  8.3680000  1
    157    151    355    356     1  180.0000771  10.4600000  2
    158    153    152    165     1  0.0000000  3.3472000  1
    158    153    152    165     1  0.0000000  0.0000000  2
    158    153    152    165     1  180.0000771  0.3347200  3
    158    153    152    166     1  0.0000000  3.3472000  1
    158    153    152    166     1  0.0000000  0.0000000  2
    158    153    152    166     1  180.0000771  0.3347200  3
    158    153    429    430     1  0.0000000  8.3680000  1
    158    153    429    430     1  180.0000771  10.4600000  2
    159    148    147    172     1  0.0000000  0.6508444  3
    159    148    150    163     1  0.0000000  0.6508444  3
    159    148    150    164     1  0.0000000  0.6508444  3
    160    148    147    172     1  0.0000000  0.6508444  3
    160    148    150    163     1  0.0000000  0.6508444  3
    160    148    150    164     1  0.0000000  0.6508444  3
    161    149    147    172     1  0.0000000  0.6508444  3
    161    149    152    165     1  0.0000000  0.6508444  3
    161    149    152    166     1  0.0000000  0.6508444  3
    162    149    147    172     1  0.0000000  0.6508444  3
    162    149    152    165     1  0.0000000  0.6508444  3
    162    149    152    166     1  0.0000000  0.6508444  3
    163    150    151    355     1  180.0000771  0.0000000  2
    164    150    151    355     1  180.0000771  0.0000000  2
    165    152    153    429     1  180.0000771  0.0000000  2
    166    152    153    429     1  180.0000771  0.0000000  2
    167    154    147    172     1  0.0000000  0.6508444  3
    167    154    155    169     1  0.0000000  0.6508444  3
    167    154    155    170     1  0.0000000  0.6508444  3
    168    154    147    172     1  0.0000000  0.6508444  3
    168    154    155    169     1  0.0000000  0.6508444  3
    168    154    155    170     1  0.0000000  0.6508444  3
    169    155    156    171     1  0.0000000  0.0000000  2
    170    155    156    171     1  0.0000000  0.0000000  2
    173    174    176    189     1  0.0000000  0.6508444  3
    173    174    176    190     1  0.0000000  0.6508444  3
    173    175    178    191     1  0.0000000  0.6508444  3
    173    175    178    192     1  0.0000000  0.6508444  3
    173    180    181    195     1  0.0000000  0.6508444  3
    173    180    181    196     1  0.0000000  0.6508444  3
    174    173    175    187     1  0.0000000  0.6508444  3
    174    173    175    188     1  0.0000000  0.6508444  3
    174    173    180    193     1  0.0000000  0.6508444  3
    174    173    180    194     1  0.0000000  0.6508444  3
    175    173    174    185     1  0.0000000  0.6508444  3
    175    173    174    186     1  0.0000000  0.6508444  3
    175    173    180    193     1  0.0000000  0.6508444  3
    175    173    180    194     1  0.0000000  0.6508444  3
    176    174    173    198     1  0.0000000  0.6508444  3
    176    177    503    504     1  180.0000771  10.4600000  2
    177    176    174    185     1  0.0000000  0.6508444  3
    177    176    174    186     1  0.0000000  0.6508444  3
    177    503    505    506     1  0.0000000  0.0000000  2
    177    503    505    508     1  0.0000000  0.0000000  2
    178    175    173    198     1  0.0000000  0.6508444  3
    178    179    577    578     1  180.0000771  10.4600000  2
    179    178    175    187     1  0.0000000  0.6508444  3
    179    178    175    188     1  0.0000000  0.6508444  3
    179    577    579    580     1  0.0000000  0.0000000  2
    179    577    579    582     1  0.0000000  0.0000000  2
    180    173    174    185     1  0.0000000  0.6508444  3
    180    173    174    186     1  0.0000000  0.6508444  3
    180    173    175    187     1  0.0000000  0.6508444  3
    180    173    175    188     1  0.0000000  0.6508444  3
    180    181    182    197     1  0.0000000  0.0000000  2
    181    180    173    198     1  0.0000000  0.6508444  3
    182    181    180    193     1  0.0000000  0.6508444  3
    182    181    180    194     1  0.0000000  0.6508444  3
    183    177    176    189     1  0.0000000  3.3472000  1
    183    177    176    189     1  0.0000000  0.0000000  2
    183    177    176    189     1  180.0000771  0.3347200  3
    183    177    176    190     1  0.0000000  3.3472000  1
    183    177    176    190     1  0.0000000  0.0000000  2
    183    177    176    190     1  180.0000771  0.3347200  3
    183    177    503    504     1  0.0000000  8.3680000  1
    183    177    503    504     1  180.0000771  10.4600000  2
    184    179    178    191     1  0.0000000  3.3472000  1
    184    179    178    191     1  0.0000000  0.0000000  2
    184    179    178    191     1  180.0000771  0.3347200  3
    184    179    178    192     1  0.0000000  3.3472000  1
    184    179    178    192     1  0.0000000  0.0000000  2
    184    179    178    192     1  180.0000771  0.3347200  3
    184    179    577    578     1  0.0000000  8.3680000  1
    184    179    577    578     1  180.0000771  10.4600000  2
    185    174    173    198     1  0.0000000  0.6508444  3
    185    174    176    189     1  0.0000000  0.6508444  3
    185    174    176    190     1  0.0000000  0.6508444  3
    186    174    173    198     1  0.0000000  0.6508444  3
    186    174    176    189     1  0.0000000  0.6508444  3
    186    174    176    190     1  0.0000000  0.6508444  3
    187    175    173    198     1  0.0000000  0.6508444  3
    187    175    178    191     1  0.0000000  0.6508444  3
    187    175    178    192     1  0.0000000  0.6508444  3
    188    175    173    198     1  0.0000000  0.6508444  3
    188    175    178    191     1  0.0000000  0.6508444  3
    188    175    178    192     1  0.0000000  0.6508444  3
    189    176    177    503     1  180.0000771  0.0000000  2
    190    176    177    503     1  180.0000771  0.0000000  2
    191    178    179    577     1  180.0000771  0.0000000  2
    192    178    179    577     1  180.0000771  0.0000000  2
    193    180    173    198     1  0.0000000  0.6508444  3
    193    180    181    195     1  0.0000000  0.6508444  3
    193    180    181    196     1  0.0000000  0.6508444  3
    194    180    173    198     1  0.0000000  0.6508444  3
    194    180    181    195     1  0.0000000  0.6508444  3
    194    180    181    196     1  0.0000000  0.6508444  3
    195    181    182    197     1  0.0000000  0.0000000  2
    196    181    182    197     1  0.0000000  0.0000000  2
    199    200    202    215     1  0.0000000  0.6508444  3
    199    200    202    216     1  0.0000000  0.6508444  3
    199    201    204    217     1  0.0000000  0.6508444  3
    199    201    204    218     1  0.0000000  0.6508444  3
    199    206    207    221     1  0.0000000  0.6508444  3
    199    206    207    222     1  0.0000000  0.6508444  3
    200    199    201    213     1  0.0000000  0.6508444  3
    200    199    201    214     1  0.0000000  0.6508444  3
    200    199    206    219     1  0.0000000  0.6508444  3
    200    199    206    220     1  0.0000000  0.6508444  3
    201    199    200    211     1  0.0000000  0.6508444  3
    201    199    200    212     1  0.0000000  0.6508444  3
    201    199    206    219     1  0.0000000  0.6508444  3
    201    199    206    220     1  0.0000000  0.6508444  3
    202    200    199    224     1  0.0000000  0.6508444  3
    202    203    651    652     1  180.0000771  10.4600000  2
    203    202    200    211     1  0.0000000  0.6508444  3
    203    202    200    212     1  0.0000000  0.6508444  3
    203    651    653    654     1  0.0000000  0.0000000  2
    203    651    653    656     1  0.0000000  0.0000000  2
    204    201    199    224     1  0.0000000  0.6508444  3
    204    205    725    726     1  180.0000771  10.4600000  2
    205    204    201    213     1  0.0000000  0.6508444  3
    205    204    201    214     1  0.0000000  0.6508444  3
    205    725    727    728     1  0.0000000  0.0000000  2
    205    725    727    730     1  0.0000000  0.0000000  2
    206    199    200    211     1  0.0000000  0.6508444  3
    206    199    200    212     1  0.0000000  0.6508444  3
    206    199    201    213     1  0.0000000  0.6508444  3
    206    199    201    214     1  0.0000000  0.6508444  3
    206    207    208    223     1  0.0000000  0.0000000  2
    207    206    199    224     1  0.0000000  0.6508444  3
    208    207    206    219     1  0.0000000  0.6508444  3
    208    207    206    220     1  0.0000000  0.6508444  3
    209    203    202    215     1  0.0000000  3.3472000  1
    209    203    202    215     1  0.0000000  0.0000000  2
    209    203    202    215     1  180.0000771  0.3347200  3
    209    203    202    216     1  0.0000000  3.3472000  1
    209    203    202    216     1  0.0000000  0.0000000  2
    209    203    202    216     1  180.0000771  0.3347200  3
    209    203    651    652     1  0.0000000  8.3680000  1
    209    203    651    652     1  180.0000771  10.4600000  2
    210    205    204    217     1  0.0000000  3.3472000  1
    210    205    204    217     1  0.0000000  0.0000000  2
    210    205    204    217     1  180.0000771  0.3347200  3
    210    205    204    218     1  0.0000000  3.3472000  1
    210    205    204    218     1  0.0000000  0.0000000  2
    210    205    204    218     1  180.0000771  0.3347200  3
    210    205    725    726     1  0.0000000  8.3680000  1
    210    205    725    726     1  180.0000771  10.4600000  2
    211    200    199    224     1  0.0000000  0.6508444  3
    211    200    202    215     1  0.0000000  0.6508444  3
    211    200    202    216     1  0.0000000  0.6508444  3
    212    200    199    224     1  0.0000000  0.6508444  3
    212    200    202    215     1  0.0000000  0.6508444  3
    212    200    202    216     1  0.0000000  0.6508444  3
    213    201    199    224     1  0.0000000  0.6508444  3
    213    201    204    217     1  0.0000000  0.6508444  3
    213    201    204    218     1  0.0000000  0.6508444  3
    214    201    199    224     1  0.0000000  0.6508444  3
    214    201    204    217     1  0.0000000  0.6508444  3
    214    201    204    218     1  0.0000000  0.6508444  3
    215    202    203    651     1  180.0000771  0.0000000  2
    216    202    203    651     1  180.0000771  0.0000000  2
    217    204    205    725     1  180.0000771  0.0000000  2
    218    204    205    725     1  180.0000771  0.0000000  2
    219    206    199    224     1  0.0000000  0.6508444  3
    219    206    207    221     1  0.0000000  0.6508444  3
    219    206    207    222     1  0.0000000  0.6508444  3
    220    206    199    224     1  0.0000000  0.6508444  3
    220    206    207    221     1  0.0000000  0.6508444  3
    220    206    207    222     1  0.0000000  0.6508444  3
    221    207    208    223     1  0.0000000  0.0000000  2
    222    207    208    223     1  0.0000000  0.0000000  2
    225    226    228    241     1  0.0000000  0.6508444  3
    225    226    228    242     1  0.0000000  0.6508444  3
    225    227    230    243     1  0.0000000  0.6508444  3
    225    227    230    244     1  0.0000000  0.6508444  3
    225    232    233    247     1  0.0000000  0.6508444  3
    225    232    233    248     1  0.0000000  0.6508444  3
    226    225    227    239     1  0.0000000  0.6508444  3
    226    225    227    240     1  0.0000000  0.6508444  3
    226    225    232    245     1  0.0000000  0.6508444  3
    226    225    232    246     1  0.0000000  0.6508444  3
    227    225    226    237     1  0.0000000  0.6508444  3
    227    225    226    238     1  0.0000000  0.6508444  3
    227    225    232    245     1  0.0000000  0.6508444  3
    227    225    232    246     1  0.0000000  0.6508444  3
    228    226    225    250     1  0.0000000  0.6508444  3
    228    229    799    800     1  180.0000771  10.4600000  2
    229    228    226    237     1  0.0000000  0.6508444  3
    229    228    226    238     1  0.0000000  0.6508444  3
    229    799    801    802     1  0.0000000  0.0000000  2
    229    799    801    804     1  0.0000000  0.0000000  2
    230    227    225    250     1  0.0000000  0.6508444  3
    230    231    873    874     1  180.0000771  10.4600000  2
    231    230    227    239     1  0.0000000  0.6508444  3
    231    230    227    240     1  0.0000000  0.6508444  3
    231    873    875    876     1  0.0000000  0.0000000  2
    231    873    875    878     1  0.0000000  0.0000000  2
    232    225    226    237     1  0.0000000  0.6508444  3
    232    225    226    238     1  0.0000000  0.6508444  3
    232    225    227    239     1  0.0000000  0.6508444  3
    232    225    227    240     1  0.0000000  0.6508444  3
    232    233    234    249     1  0.0000000  0.0000000  2
    233    232    225    250     1  0.0000000  0.6508444  3
    234    233    232    245     1  0.0000000  0.6508444  3
    234    233    232    246     1  0.0000000  0.6508444  3
    235    229    228    241     1  0.0000000  3.3472000  1
    235    229    228    241     1  0.0000000  0.0000000  2
    235    229    228    241     1  180.0000771  0.3347200  3
    235    229    228    242     1  0.0000000  3.3472000  1
    235    229    228    242     1  0.0000000  0.0000000  2
    235    229    228    242     1  180.0000771  0.3347200  3
    235    229    799    800     1  0.0000000  8.3680000  1
    235    229    799    800     1  180.0000771  10.4600000  2
    236    231    230    243     1  0.0000000  3.3472000  1
    236    231    230    243     1  0.0000000  0.0000000  2
    236    231    230    243     1  180.0000771  0.3347200  3
    236    231    230    244     1  0.0000000  3.3472000  1
    236    231    230    244     1  0.0000000  0.0000000  2
    236    231    230    244     1  180.0000771  0.3347200  3
    236    231    873    874     1  0.0000000  8.3680000  1
    236    231    873    874     1  180.0000771  10.4600000  2
    237    226    225    250     1  0.0000000  0.6508444  3
    237    226    228    241     1  0.0000000  0.6508444  3
    237    226    228    242     1  0.0000000  0.6508444  3
    238    226    225    250     1  0.0000000  0.6508444  3
    238    226    228    241     1  0.0000000  0.6508444  3
    238    226    228    242     1  0.0000000  0.6508444  3
    239    227    225    250     1  0.0000000  0.6508444  3
    239    227    230    243     1  0.0000000  0.6508444  3
    239    227    230    244     1  0.0000000  0.6508444  3
    240    227    225    250     1  0.0000000  0.6508444  3
    240    227    230    243     1  0.0000000  0.6508444  3
    240    227    230    244     1  0.0000000  0.6508444  3
    241    228    229    799     1  180.0000771  0.0000000  2
    242    228    229    799     1  180.0000771  0.0000000  2
    243    230    231    873     1  180.0000771  0.0000000  2
    244    230    231    873     1  180.0000771  0.0000000  2
    245    232    225    250     1  0.0000000  0.6508444  3
    245    232    233    247     1  0.0000000  0.6508444  3
    245    232    233    248     1  0.0000000  0.6508444  3
    246    232    225    250     1  0.0000000  0.6508444  3
    246    232    233    247     1  0.0000000  0.6508444  3
    246    232    233    248     1  0.0000000  0.6508444  3
    247    233    234    249     1  0.0000000  0.0000000  2
    248    233    234    249     1  0.0000000  0.0000000  2
    251    252    254    267     1  0.0000000  0.6508444  3
    251    252    254    268     1  0.0000000  0.6508444  3
    251    253    256    269     1  0.0000000  0.6508444  3
    251    253    256    270     1  0.0000000  0.6508444  3
    251    258    259    273     1  0.0000000  0.6508444  3
    251    258    259    274     1  0.0000000  0.6508444  3
    252    251    253    265     1  0.0000000  0.6508444  3
    252    251    253    266     1  0.0000000  0.6508444  3
    252    251    258    271     1  0.0000000  0.6508444  3
    252    251    258    272     1  0.0000000  0.6508444  3
    253    251    252    263     1  0.0000000  0.6508444  3
    253    251    252    264     1  0.0000000  0.6508444  3
    253    251    258    271     1  0.0000000  0.6508444  3
    253    251    258    272     1  0.0000000  0.6508444  3
    254    252    251    276     1  0.0000000  0.6508444  3
    254    255    947    948     1  180.0000771  10.4600000  2
    255    254    252    263     1  0.0000000  0.6508444  3
    255    254    252    264     1  0.0000000  0.6508444  3
    255    947    949    950     1  0.0000000  0.0000000  2
    255    947    949    952     1  0.0000000  0.0000000  2
    256    253    251    276     1  0.0000000  0.6508444  3
    256    257   1021   1022     1  180.0000771  10.4600000  2
    257    256    253    265     1  0.0000000  0.6508444  3
    257    256    253    266     1  0.0000000  0.6508444  3
    257   1021   1023   1024     1  0.0000000  0.0000000  2
    257   1021   1023   1026     1  0.0000000  0.0000000  2
    258    251    252    263     1  0.0000000  0.6508444  3
    258    251    252    264     1  0.0000000  0.6508444  3
    258    251    253    265     1  0.0000000  0.6508444  3
    258    251    253    266     1  0.0000000  0.6508444  3
    258    259    260    275     1  0.0000000  0.0000000  2
    259    258    251    276     1  0.0000000  0.6508444  3
    260    259    258    271     1  0.0000000  0.6508444  3
    260    259    258    272     1  0.0000000  0.6508444  3
    261    255    254    267     1  0.0000000  3.3472000  1
    261    255    254    267     1  0.0000000  0.0000000  2
    261    255    254    267     1  180.0000771  0.3347200  3
    261    255    254    268     1  0.0000000  3.3472000  1
    261    255    254    268     1  0.0000000  0.0000000  2
    261    255    254    268     1  180.0000771  0.3347200  3
    261    255    947    948     1  0.0000000  8.3680000  1
    261    255    947    948     1  180.0000771  10.4600000  2
    262    257    256    269     1  0.0000000  3.3472000  1
    262    257    256    269     1  0.0000000  0.0000000  2
    262    257    256    269     1  180.0000771  0.3347200  3
    262    257    256    270     1  0.0000000  3.3472000  1
    262    257    256    270     1  0.0000000  0.0000000  2
    262    257    256    270     1  180.0000771  0.3347200  3
    262    257   1021   1022     1  0.0000000  8.3680000  1
    262    257   1021   1022     1  180.0000771  10.4600000  2
    263    252    251    276     1  0.0000000  0.6508444  3
    263    252    254    267     1  0.0000000  0.6508444  3
    263    252    254    268     1  0.0000000  0.6508444  3
    264    252    251    276     1  0.0000000  0.6508444  3
    264    252    254    267     1  0.0000000  0.6508444  3
    264    252    254    268     1  0.0000000  0.6508444  3
    265    253    251    276     1  0.0000000  0.6508444  3
    265    253    256    269     1  0.0000000  0.6508444  3
    265    253    256    270     1  0.0000000  0.6508444  3
    266    253    251    276     1  0.0000000  0.6508444  3
    266    253    256    269     1  0.0000000  0.6508444  3
    266    253    256    270     1  0.0000000  0.6508444  3
    267    254    255    947     1  180.0000771  0.0000000  2
    268    254    255    947     1  180.0000771  0.0000000  2
    269    256    257   1021     1  180.0000771  0.0000000  2
    270    256    257   1021     1  180.0000771  0.0000000  2
    271    258    251    276     1  0.0000000  0.6508444  3
    271    258    259    273     1  0.0000000  0.6508444  3
    271    258    259    274     1  0.0000000  0.6508444  3
    272    258    251    276     1  0.0000000  0.6508444  3
    272    258    259    273     1  0.0000000  0.6508444  3
    272    258    259    274     1  0.0000000  0.6508444  3
    273    259    260    275     1  0.0000000  0.0000000  2
    274    259    260    275     1  0.0000000  0.0000000  2
    277    278    280    293     1  0.0000000  0.6508444  3
    277    278    280    294     1  0.0000000  0.6508444  3
    277    279    282    295     1  0.0000000  0.6508444  3
    277    279    282    296     1  0.0000000  0.6508444  3
    277    284    285    299     1  0.0000000  0.6508444  3
    277    284    285    300     1  0.0000000  0.6508444  3
    278    277    279    291     1  0.0000000  0.6508444  3
    278    277    279    292     1  0.0000000  0.6508444  3
    278    277    284    297     1  0.0000000  0.6508444  3
    278    277    284    298     1  0.0000000  0.6508444  3
    279    277    278    289     1  0.0000000  0.6508444  3
    279    277    278    290     1  0.0000000  0.6508444  3
    279    277    284    297     1  0.0000000  0.6508444  3
    279    277    284    298     1  0.0000000  0.6508444  3
    280    278    277    302     1  0.0000000  0.6508444  3
    280    281   1095   1096     1  180.0000771  10.4600000  2
    281    280    278    289     1  0.0000000  0.6508444  3
    281    280    278    290     1  0.0000000  0.6508444  3
    281   1095   1097   1098     1  0.0000000  0.0000000  2
    281   1095   1097   1100     1  0.0000000  0.0000000  2
    282    279    277    302     1  0.0000000  0.6508444  3
    282    283   1169   1170     1  180.0000771  10.4600000  2
    283    282    279    291     1  0.0000000  0.6508444  3
    283    282    279    292     1  0.0000000  0.6508444  3
    283   1169   1171   1172     1  0.0000000  0.0000000  2
    283   1169   1171   1174     1  0.0000000  0.0000000  2
    284    277    278    289     1  0.0000000  0.6508444  3
    284    277    278    290     1  0.0000000  0.6508444  3
    284    277    279    291     1  0.0000000  0.6508444  3
    284    277    279    292     1  0.0000000  0.6508444  3
    284    285    286    301     1  0.0000000  0.0000000  2
    285    284    277    302     1  0.0000000  0.6508444  3
    286    285    284    297     1  0.0000000  0.6508444  3
    286    285    284    298     1  0.0000000  0.6508444  3
    287    281    280    293     1  0.0000000  3.3472000  1
    287    281    280    293     1  0.0000000  0.0000000  2
    287    281    280    293     1  180.0000771  0.3347200  3
    287    281    280    294     1  0.0000000  3.3472000  1
    287    281    280    294     1  0.0000000  0.0000000  2
    287    281    280    294     1  180.0000771  0.3347200  3
    287    281   1095   1096     1  0.0000000  8.3680000  1
    287    281   1095   1096     1  180.0000771  10.4600000  2
    288    283    282    295     1  0.0000000  3.3472000  1
    288    283    282    295     1  0.0000000  0.0000000  2
    288    283    282    295     1  180.0000771  0.3347200  3
    288    283    282    296     1  0.0000000  3.3472000  1
    288    283    282    296     1  0.0000000  0.0000000  2
    288    283    282    296     1  180.0000771  0.3347200  3
    288    283   1169   1170     1  0.0000000  8.3680000  1
    288    283   1169   1170     1  180.0000771  10.4600000  2
    289    278    277    302     1  0.0000000  0.6508444  3
    289    278    280    293     1  0.0000000  0.6508444  3
    289    278    280    294     1  0.0000000  0.6508444  3
    290    278    277    302     1  0.0000000  0.6508444  3
    290    278    280    293     1  0.0000000  0.6508444  3
    290    278    280    294     1  0.0000000  0.6508444  3
    291    279    277    302     1  0.0000000  0.6508444  3
    291    279    282    295     1  0.0000000  0.6508444  3
    291    279    282    296     1  0.0000000  0.6508444  3
    292    279    277    302     1  0.0000000  0.6508444  3
    292    279    282    295     1  0.0000000  0.6508444  3
    292    279    282    296     1  0.0000000  0.6508444  3
    293    280    281   1095     1  180.0000771  0.0000000  2
    294    280    281   1095     1  180.0000771  0.0000000  2
    295    282    283   1169     1  180.0000771  0.0000000  2
    296    282    283   1169     1  180.0000771  0.0000000  2
    297    284    277    302     1  0.0000000  0.6508444  3
    297    284    285    299     1  0.0000000  0.6508444  3
    297    284    285    300     1  0.0000000  0.6508444  3
    298    284    277    302     1  0.0000000  0.6508444  3
    298    284    285    299     1  0.0000000  0.6508444  3
    298    284    285    300     1  0.0000000  0.6508444  3
    299    285    286    301     1  0.0000000  0.0000000  2
    300    285    286    301     1  0.0000000  0.0000000  2
    303    304    306    319     1  0.0000000  0.6508444  3
    303    304    306    320     1  0.0000000  0.6508444  3
    303    305    308    321     1  0.0000000  0.6508444  3
    303    305    308    322     1  0.0000000  0.6508444  3
    303    310    311    325     1  0.0000000  0.6508444  3
    303    310    311    326     1  0.0000000  0.6508444  3
    304    303    305    317     1  0.0000000  0.6508444  3
    304    303    305    318     1  0.0000000  0.6508444  3
    304    303    310    323     1  0.0000000  0.6508444  3
    304    303    310    324     1  0.0000000  0.6508444  3
    305    303    304    315     1  0.0000000  0.6508444  3
    305    303    304    316     1  0.0000000  0.6508444  3
    305    303    310    323     1  0.0000000  0.6508444  3
    305    303    310    324     1  0.0000000  0.6508444  3
    306    304    303    328     1  0.0000000  0.6508444  3
    306    307   1243   1244     1  180.0000771  10.4600000  2
    307    306    304    315     1  0.0000000  0.6508444  3
    307    306    304    316     1  0.0000000  0.6508444  3
    307   1243   1245   1246     1  0.0000000  0.0000000  2
    307   1243   1245   1248     1  0.0000000  0.0000000  2
    308    305    303    328     1  0.0000000  0.6508444  3
    308    309   1317   1318     1  180.0000771  10.4600000  2
    309    308    305    317     1  0.0000000  0.6508444  3
    309    308    305    318     1  0.0000000  0.6508444  3
    309   1317   1319   1320     1  0.0000000  0.0000000  2
    309   1317   1319   1322     1  0.0000000  0.0000000  2
    310    303    304    315     1  0.0000000  0.6508444  3
    310    303    304    316     1  0.0000000  0.6508444  3
    310    303    305    317     1  0.0000000  0.6508444  3
    310    303    305    318     1  0.0000000  0.6508444  3
    310    311    312    327     1  0.0000000  0.0000000  2
    311    310    303    328     1  0.0000000  0.6508444  3
    312    311    310    323     1  0.0000000  0.6508444  3
    312    311    310    324     1  0.0000000  0.6508444  3
    313    307    306    319     1  0.0000000  3.3472000  1
    313    307    306    319     1  0.0000000  0.0000000  2
    313    307    306    319     1  180.0000771  0.3347200  3
    313    307    306    320     1  0.0000000  3.3472000  1
    313    307    306    320     1  0.0000000  0.0000000  2
    313    307    306    320     1  180.0000771  0.3347200  3
    313    307   1243   1244     1  0.0000000  8.3680000  1
    313    307   1243   1244     1  180.0000771  10.4600000  2
    314    309    308    321     1  0.0000000  3.3472000  1
    314    309    308    321     1  0.0000000  0.0000000  2
    314    309    308    321     1  180.0000771  0.3347200  3
    314    309    308    322     1  0.0000000  3.3472000  1
    314    309    308    322     1  0.0000000  0.0000000  2
    314    309    308    322     1  180.0000771  0.3347200  3
    314    309   1317   1318     1  0.0000000  8.3680000  1
    314    309   1317   1318     1  180.0000771  10.4600000  2
    315    304    303    328     1  0.0000000  0.6508444  3
    315    304    306    319     1  0.0000000  0.6508444  3
    315    304    306    320     1  0.0000000  0.6508444  3
    316    304    303    328     1  0.0000000  0.6508444  3
    316    304    306    319     1  0.0000000  0.6508444  3
    316    304    306    320     1  0.0000000  0.6508444  3
    317    305    303    328     1  0.0000000  0.6508444  3
    317    305    308    321     1  0.0000000  0.6508444  3
    317    305    308    322     1  0.0000000  0.6508444  3
    318    305    303    328     1  0.0000000  0.6508444  3
    318    305    308    321     1  0.0000000  0.6508444  3
    318    305    308    322     1  0.0000000  0.6508444  3
    319    306    307   1243     1  180.0000771  0.0000000  2
    320    306    307   1243     1  180.0000771  0.0000000  2
    321    308    309   1317     1  180.0000771  0.0000000  2
    322    308    309   1317     1  180.0000771  0.0000000  2
    323    310    303    328     1  0.0000000  0.6508444  3
    323    310    311    325     1  0.0000000  0.6508444  3
    323    310    311    326     1  0.0000000  0.6508444  3
    324    310    303    328     1  0.0000000  0.6508444  3
    324    310    311    325     1  0.0000000  0.6508444  3
    324    310    311    326     1  0.0000000  0.6508444  3
    325    311    312    327     1  0.0000000  0.0000000  2
    326    311    312    327     1  0.0000000  0.0000000  2
    329    330    332    345     1  0.0000000  0.6508444  3
    329    330    332    346     1  0.0000000  0.6508444  3
    329    331    334    347     1  0.0000000  0.6508444  3
    329    331    334    348     1  0.0000000  0.6508444  3
    329    336    337    351     1  0.0000000  0.6508444  3
    329    336    337    352     1  0.0000000  0.6508444  3
    330    329    331    343     1  0.0000000  0.6508444  3
    330    329    331    344     1  0.0000000  0.6508444  3
    330    329    336    349     1  0.0000000  0.6508444  3
    330    329    336    350     1  0.0000000  0.6508444  3
    331    329    330    341     1  0.0000000  0.6508444  3
    331    329    330    342     1  0.0000000  0.6508444  3
    331    329    336    349     1  0.0000000  0.6508444  3
    331    329    336    350     1  0.0000000  0.6508444  3
    332    330    329    354     1  0.0000000  0.6508444  3
    332    333   1391   1392     1  180.0000771  10.4600000  2
    333    332    330    341     1  0.0000000  0.6508444  3
    333    332    330    342     1  0.0000000  0.6508444  3
    333   1391   1393   1394     1  0.0000000  0.0000000  2
    333   1391   1393   1396     1  0.0000000  0.0000000  2
    334    331    329    354     1  0.0000000  0.6508444  3
    334    335   1465   1466     1  180.0000771  10.4600000  2
    335    334    331    343     1  0.0000000  0.6508444  3
    335    334    331    344     1  0.0000000  0.6508444  3
    335   1465   1467   1468     1  0.0000000  0.0000000  2
    335   1465   1467   1470     1  0.0000000  0.0000000  2
    336    329    330    341     1  0.0000000  0.6508444  3
    336    329    330    342     1  0.0000000  0.6508444  3
    336    329    331    343     1  0.0000000  0.6508444  3
    336    329    331    344     1  0.0000000  0.6508444  3
    336    337    338    353     1  0.0000000  0.0000000  2
    337    336    329    354     1  0.0000000  0.6508444  3
    338    337    336    349     1  0.0000000  0.6508444  3
    338    337    336    350     1  0.0000000  0.6508444  3
    339    333    332    345     1  0.0000000  3.3472000  1
    339    333    332    345     1  0.0000000  0.0000000  2
    339    333    332    345     1  180.0000771  0.3347200  3
    339    333    332    346     1  0.0000000  3.3472000  1
    339    333    332    346     1  0.0000000  0.0000000  2
    339    333    332    346     1  180.0000771  0.3347200  3
    339    333   1391   1392     1  0.0000000  8.3680000  1
    339    333   1391   1392     1  180.0000771  10.4600000  2
    340    335    334    347     1  0.0000000  3.3472000  1
    340    335    334    347     1  0.0000000  0.0000000  2
    340    335    334    347     1  180.0000771  0.3347200  3
    340    335    334    348     1  0.0000000  3.3472000  1
    340    335    334    348     1  0.0000000  0.0000000  2
    340    335    334    348     1  180.0000771  0.3347200  3
    340    335   1465   1466     1  0.0000000  8.3680000  1
    340    335   1465   1466     1  180.0000771  10.4600000  2
    341    330    329    354     1  0.0000000  0.6508444  3
    341    330    332    345     1  0.0000000  0.6508444  3
    341    330    332    346     1  0.0000000  0.6508444  3
    342    330    329    354     1  0.0000000  0.6508444  3
    342    330    332    345     1  0.0000000  0.6508444  3
    342    330    332    346     1  0.0000000  0.6508444  3
    343    331    329    354     1  0.0000000  0.6508444  3
    343    331    334    347     1  0.0000000  0.6508444  3
    343    331    334    348     1  0.0000000  0.6508444  3
    344    331    329    354     1  0.0000000  0.6508444  3
    344    331    334    347     1  0.0000000  0.6508444  3
    344    331    334    348     1  0.0000000  0.6508444  3
    345    332    333   1391     1  180.0000771  0.0000000  2
    346    332    333   1391     1  180.0000771  0.0000000  2
    347    334    335   1465     1  180.0000771  0.0000000  2
    348    334    335   1465     1  180.0000771  0.0000000  2
    349    336    329    354     1  0.0000000  0.6508444  3
    349    336    337    351     1  0.0000000  0.6508444  3
    349    336    337    352     1  0.0000000  0.6508444  3
    350    336    329    354     1  0.0000000  0.6508444  3
    350    336    337    351     1  0.0000000  0.6508444  3
    350    336    337    352     1  0.0000000  0.6508444  3
    351    337    338    353     1  0.0000000  0.0000000  2
    352    337    338    353     1  0.0000000  0.0000000  2
    355    357    359    361     1  0.0000000  0.6508444  3
    355    357    359    362     1  0.0000000  0.6508444  3
    356    355    357    359     1  0.0000000  0.0000000  2
    356    355    357    358     1  0.0000000  0.0000000  2
    356    355    357    360     1  0.0000000  0.0000000  2
    357    359    363    428     1  0.0000000  0.6508444  3
    358    357    359    363     1  0.0000000  0.6508444  3
    358    357    359    361     1  0.0000000  0.6508444  3
    358    357    359    362     1  0.0000000  0.6508444  3
    359    363    364    373     1  0.0000000  0.6508444  3
    359    363    364    374     1  0.0000000  0.6508444  3
    359    363    365    366     1  0.0000000  0.6508444  3
    359    363    365    368     1  0.0000000  0.6508444  3
    360    357    359    363     1  0.0000000  0.6508444  3
    360    357    359    361     1  0.0000000  0.6508444  3
    360    357    359    362     1  0.0000000  0.6508444  3
    361    359    363    364     1  0.0000000  0.6508444  3
    361    359    363    365     1  0.0000000  0.6508444  3
    361    359    363    428     1  0.0000000  0.6508444  3
    362    359    363    364     1  0.0000000  0.6508444  3
    362    359    363    365     1  0.0000000  0.6508444  3
    362    359    363    428     1  0.0000000  0.6508444  3
    363    364    375    376     1  0.0000000  0.6508444  3
    363    364    375    377     1  0.0000000  0.6508444  3
    363    365    367    369     1  0.0000000  0.6508444  3
    363    365    367    370     1  0.0000000  0.6508444  3
    364    363    365    366     1  0.0000000  0.6508444  3
    364    363    365    368     1  0.0000000  0.6508444  3
    365    363    364    373     1  0.0000000  0.6508444  3
    365    363    364    374     1  0.0000000  0.6508444  3
    366    365    363    428     1  0.0000000  0.6508444  3
    366    365    367    371     1  0.0000000  0.6508444  3
    366    365    367    369     1  0.0000000  0.6508444  3
    366    365    367    370     1  0.0000000  0.6508444  3
    367    365    363    428     1  0.0000000  0.6508444  3
    367    371    403    393     1  180.0000771  6.0668000  2
    367    371    403    393     1  180.0000771  1.4644000  4
    368    365    363    428     1  0.0000000  0.6508444  3
    368    365    367    371     1  0.0000000  0.6508444  3
    368    365    367    369     1  0.0000000  0.6508444  3
    368    365    367    370     1  0.0000000  0.6508444  3
    369    367    371    372     1  0.0000000  3.3472000  1
    369    367    371    372     1  0.0000000  0.0000000  2
    369    367    371    372     1  180.0000771  0.3347200  3
    369    367    371    403     1  180.0000771  0.0000000  2
    370    367    371    372     1  0.0000000  3.3472000  1
    370    367    371    372     1  0.0000000  0.0000000  2
    370    367    371    372     1  180.0000771  0.3347200  3
    370    367    371    403     1  180.0000771  0.0000000  2
    371    403    384    386     1  0.0000000  1.2552000  3
    372    371    403    393     1  180.0000771  6.0668000  2
    372    371    403    393     1  180.0000771  1.4644000  4
    373    364    363    428     1  0.0000000  0.6508444  3
    373    364    375    378     1  0.0000000  0.6508444  3
    373    364    375    376     1  0.0000000  0.6508444  3
    373    364    375    377     1  0.0000000  0.6508444  3
    374    364    363    428     1  0.0000000  0.6508444  3
    374    364    375    378     1  0.0000000  0.6508444  3
    374    364    375    376     1  0.0000000  0.6508444  3
    374    364    375    377     1  0.0000000  0.6508444  3
    375    364    363    428     1  0.0000000  0.6508444  3
    375    378    427    417     1  180.0000771  6.0668000  2
    375    378    427    417     1  180.0000771  1.4644000  4
    376    375    378    379     1  0.0000000  3.3472000  1
    376    375    378    379     1  0.0000000  0.0000000  2
    376    375    378    379     1  180.0000771  0.3347200  3
    376    375    378    427     1  180.0000771  0.0000000  2
    377    375    378    379     1  0.0000000  3.3472000  1
    377    375    378    379     1  0.0000000  0.0000000  2
    377    375    378    379     1  180.0000771  0.3347200  3
    377    375    378    427     1  180.0000771  0.0000000  2
    378    427    408    410     1  0.0000000  1.2552000  3
    379    378    427    417     1  180.0000771  6.0668000  2
    379    378    427    417     1  180.0000771  1.4644000  4
    380    381    383    387     1  0.0000000  0.6508444  3
    380    381    401    402     1  0.0000000  1.0460000  1
    380    381    401    402     1  0.0000000  0.6694400  3
    380    391    396    397     1  0.0000000  1.0460000  1
    380    391    396    397     1  0.0000000  0.6694400  3
    380    398    385    388     1  0.0000000  1.6038667  3
    381    380    391    394     1  0.0000000  0.6508444  3
    381    380    391    395     1  0.0000000  0.6508444  3
    381    383    384    386     1  0.0000000  0.6508444  3
    381    383    390    392     1  0.0000000  1.0460000  1
    381    383    390    392     1  0.0000000  0.6694400  3
    382    380    381    383     1  0.0000000  0.6508444  3
    382    380    381    401     1  0.0000000  1.0460000  1
    382    380    381    401     1  0.0000000  0.0000000  3
    382    380    381    400     1  0.0000000  0.6508444  3
    382    380    391    396     1  0.0000000  1.0460000  1
    382    380    391    396     1  0.0000000  0.0000000  3
    382    380    391    394     1  0.0000000  0.6508444  3
    382    380    391    395     1  0.0000000  0.6508444  3
    382    380    398    385     1  0.0000000  1.6038667  3
    383    381    401    402     1  0.0000000  1.0460000  1
    383    381    401    402     1  0.0000000  0.6694400  3
    383    384    385    388     1  0.0000000  0.6508444  3
    383    384    403    393     1  0.0000000  1.2552000  3
    384    383    381    400     1  0.0000000  0.6508444  3
    384    383    390    392     1  0.0000000  1.0460000  1
    384    383    390    392     1  0.0000000  0.6694400  3
    384    385    389    399     1  0.0000000  1.0460000  1
    384    385    389    399     1  0.0000000  0.6694400  3
    385    384    383    387     1  0.0000000  0.6508444  3
    385    384    403    393     1  0.0000000  1.2552000  3
    386    384    383    390     1  0.0000000  1.0460000  1
    386    384    383    390     1  0.0000000  0.0000000  3
    386    384    383    387     1  0.0000000  0.6508444  3
    386    384    385    389     1  0.0000000  1.0460000  1
    386    384    385    389     1  0.0000000  0.0000000  3
    386    384    385    398     1  0.0000000  1.0460000  1
    386    384    385    398     1  0.0000000  0.0000000  3
    386    384    385    388     1  0.0000000  0.6508444  3
    386    384    403    393     1  0.0000000  1.2552000  3
    387    383    381    401     1  0.0000000  1.0460000  1
    387    383    381    401     1  0.0000000  0.0000000  3
    387    383    381    400     1  0.0000000  0.6508444  3
    387    383    384    403     1  0.0000000  0.6508444  3
    387    383    390    392     1  0.0000000  0.6973333  3
    388    385    384    403     1  0.0000000  0.6508444  3
    388    385    389    399     1  0.0000000  0.6973333  3
    390    383    381    400     1  0.0000000  1.0460000  1
    390    383    381    400     1  0.0000000  0.0000000  3
    391    380    381    400     1  0.0000000  0.6508444  3
    394    391    380    398     1  0.0000000  1.0460000  1
    394    391    380    398     1  0.0000000  0.0000000  3
    394    391    396    397     1  0.0000000  0.6973333  3
    395    391    380    398     1  0.0000000  1.0460000  1
    395    391    380    398     1  0.0000000  0.0000000  3
    395    391    396    397     1  0.0000000  0.6973333  3
    398    380    381    400     1  0.0000000  1.0460000  1
    398    380    381    400     1  0.0000000  0.0000000  3
    398    385    389    399     1  0.0000000  0.6973333  3
    400    381    401    402     1  0.0000000  0.6973333  3
    404    405    407    411     1  0.0000000  0.6508444  3
    404    405    425    426     1  0.0000000  1.0460000  1
    404    405    425    426     1  0.0000000  0.6694400  3
    404    415    420    421     1  0.0000000  1.0460000  1
    404    415    420    421     1  0.0000000  0.6694400  3
    404    422    409    412     1  0.0000000  1.6038667  3
    405    404    415    418     1  0.0000000  0.6508444  3
    405    404    415    419     1  0.0000000  0.6508444  3
    405    407    408    410     1  0.0000000  0.6508444  3
    405    407    414    416     1  0.0000000  1.0460000  1
    405    407    414    416     1  0.0000000  0.6694400  3
    406    404    405    407     1  0.0000000  0.6508444  3
    406    404    405    425     1  0.0000000  1.0460000  1
    406    404    405    425     1  0.0000000  0.0000000  3
    406    404    405    424     1  0.0000000  0.6508444  3
    406    404    415    420     1  0.0000000  1.0460000  1
    406    404    415    420     1  0.0000000  0.0000000  3
    406    404    415    418     1  0.0000000  0.6508444  3
    406    404    415    419     1  0.0000000  0.6508444  3
    406    404    422    409     1  0.0000000  1.6038667  3
    407    405    425    426     1  0.0000000  1.0460000  1
    407    405    425    426     1  0.0000000  0.6694400  3
    407    408    409    412     1  0.0000000  0.6508444  3
    407    408    427    417     1  0.0000000  1.2552000  3
    408    407    405    424     1  0.0000000  0.6508444  3
    408    407    414    416     1  0.0000000  1.0460000  1
    408    407    414    416     1  0.0000000  0.6694400  3
    408    409    413    423     1  0.0000000  1.0460000  1
    408    409    413    423     1  0.0000000  0.6694400  3
    409    408    407    411     1  0.0000000  0.6508444  3
    409    408    427    417     1  0.0000000  1.2552000  3
    410    408    407    414     1  0.0000000  1.0460000  1
    410    408    407    414     1  0.0000000  0.0000000  3
    410    408    407    411     1  0.0000000  0.6508444  3
    410    408    409    413     1  0.0000000  1.0460000  1
    410    408    409    413     1  0.0000000  0.0000000  3
    410    408    409    422     1  0.0000000  1.0460000  1
    410    408    409    422     1  0.0000000  0.0000000  3
    410    408    409    412     1  0.0000000  0.6508444  3
    410    408    427    417     1  0.0000000  1.2552000  3
    411    407    405    425     1  0.0000000  1.0460000  1
    411    407    405    425     1  0.0000000  0.0000000  3
    411    407    405    424     1  0.0000000  0.6508444  3
    411    407    408    427     1  0.0000000  0.6508444  3
    411    407    414    416     1  0.0000000  0.6973333  3
    412    409    408    427     1  0.0000000  0.6508444  3
    412    409    413    423     1  0.0000000  0.6973333  3
    414    407    405    424     1  0.0000000  1.0460000  1
    414    407    405    424     1  0.0000000  0.0000000  3
    415    404    405    424     1  0.0000000  0.6508444  3
    418    415    404    422     1  0.0000000  1.0460000  1
    418    415    404    422     1  0.0000000  0.0000000  3
    418    415    420    421     1  0.0000000  0.6973333  3
    419    415    404    422     1  0.0000000  1.0460000  1
    419    415    404    422     1  0.0000000  0.0000000  3
    419    415    420    421     1  0.0000000  0.6973333  3
    422    404    405    424     1  0.0000000  1.0460000  1
    422    404    405    424     1  0.0000000  0.0000000  3
    422    409    413    423     1  0.0000000  0.6973333  3
    424    405    425    426     1  0.0000000  0.6973333  3
    429    431    433    435     1  0.0000000  0.6508444  3
    429    431    433    436     1  0.0000000  0.6508444  3
    430    429    431    433     1  0.0000000  0.0000000  2
    430    429    431    432     1  0.0000000  0.0000000  2
    430    429    431    434     1  0.0000000  0.0000000  2
    431    433    437    502     1  0.0000000  0.6508444  3
    432    431    433    437     1  0.0000000  0.6508444  3
    432    431    433    435     1  0.0000000  0.6508444  3
    432    431    433    436     1  0.0000000  0.6508444  3
    433    437    438    447     1  0.0000000  0.6508444  3
    433    437    438    448     1  0.0000000  0.6508444  3
    433    437    439    440     1  0.0000000  0.6508444  3
    433    437    439    442     1  0.0000000  0.6508444  3
    434    431    433    437     1  0.0000000  0.6508444  3
    434    431    433    435     1  0.0000000  0.6508444  3
    434    431    433    436     1  0.0000000  0.6508444  3
    435    433    437    438     1  0.0000000  0.6508444  3
    435    433    437    439     1  0.0000000  0.6508444  3
    435    433    437    502     1  0.0000000  0.6508444  3
    436    433    437    438     1  0.0000000  0.6508444  3
    436    433    437    439     1  0.0000000  0.6508444  3
    436    433    437    502     1  0.0000000  0.6508444  3
    437    438    449    450     1  0.0000000  0.6508444  3
    437    438    449    451     1  0.0000000  0.6508444  3
    437    439    441    443     1  0.0000000  0.6508444  3
    437    439    441    444     1  0.0000000  0.6508444  3
    438    437    439    440     1  0.0000000  0.6508444  3
    438    437    439    442     1  0.0000000  0.6508444  3
    439    437    438    447     1  0.0000000  0.6508444  3
    439    437    438    448     1  0.0000000  0.6508444  3
    440    439    441    445     1  0.0000000  0.6508444  3
    440    439    441    443     1  0.0000000  0.6508444  3
    440    439    441    444     1  0.0000000  0.6508444  3
    440    439    437    502     1  0.0000000  0.6508444  3
    441    445    477    467     1  180.0000771  6.0668000  2
    441    445    477    467     1  180.0000771  1.4644000  4
    441    439    437    502     1  0.0000000  0.6508444  3
    442    439    441    445     1  0.0000000  0.6508444  3
    442    439    441    443     1  0.0000000  0.6508444  3
    442    439    441    444     1  0.0000000  0.6508444  3
    442    439    437    502     1  0.0000000  0.6508444  3
    443    441    445    446     1  0.0000000  3.3472000  1
    443    441    445    446     1  0.0000000  0.0000000  2
    443    441    445    446     1  180.0000771  0.3347200  3
    443    441    445    477     1  180.0000771  0.0000000  2
    444    441    445    446     1  0.0000000  3.3472000  1
    444    441    445    446     1  0.0000000  0.0000000  2
    444    441    445    446     1  180.0000771  0.3347200  3
    444    441    445    477     1  180.0000771  0.0000000  2
    445    477    458    460     1  0.0000000  1.2552000  3
    446    445    477    467     1  180.0000771  6.0668000  2
    446    445    477    467     1  180.0000771  1.4644000  4
    447    438    449    452     1  0.0000000  0.6508444  3
    447    438    449    450     1  0.0000000  0.6508444  3
    447    438    449    451     1  0.0000000  0.6508444  3
    447    438    437    502     1  0.0000000  0.6508444  3
    448    438    449    452     1  0.0000000  0.6508444  3
    448    438    449    450     1  0.0000000  0.6508444  3
    448    438    449    451     1  0.0000000  0.6508444  3
    448    438    437    502     1  0.0000000  0.6508444  3
    449    452    501    491     1  180.0000771  6.0668000  2
    449    452    501    491     1  180.0000771  1.4644000  4
    449    438    437    502     1  0.0000000  0.6508444  3
    450    449    452    453     1  0.0000000  3.3472000  1
    450    449    452    453     1  0.0000000  0.0000000  2
    450    449    452    453     1  180.0000771  0.3347200  3
    450    449    452    501     1  180.0000771  0.0000000  2
    451    449    452    453     1  0.0000000  3.3472000  1
    451    449    452    453     1  0.0000000  0.0000000  2
    451    449    452    453     1  180.0000771  0.3347200  3
    451    449    452    501     1  180.0000771  0.0000000  2
    452    501    482    484     1  0.0000000  1.2552000  3
    453    452    501    491     1  180.0000771  6.0668000  2
    453    452    501    491     1  180.0000771  1.4644000  4
    454    455    457    461     1  0.0000000  0.6508444  3
    454    455    475    476     1  0.0000000  1.0460000  1
    454    455    475    476     1  0.0000000  0.6694400  3
    454    465    470    471     1  0.0000000  1.0460000  1
    454    465    470    471     1  0.0000000  0.6694400  3
    454    472    459    462     1  0.0000000  1.6038667  3
    455    457    458    460     1  0.0000000  0.6508444  3
    455    457    464    466     1  0.0000000  1.0460000  1
    455    457    464    466     1  0.0000000  0.6694400  3
    455    454    465    468     1  0.0000000  0.6508444  3
    455    454    465    469     1  0.0000000  0.6508444  3
    456    454    455    457     1  0.0000000  0.6508444  3
    456    454    455    475     1  0.0000000  1.0460000  1
    456    454    455    475     1  0.0000000  0.0000000  3
    456    454    455    474     1  0.0000000  0.6508444  3
    456    454    465    470     1  0.0000000  1.0460000  1
    456    454    465    470     1  0.0000000  0.0000000  3
    456    454    465    468     1  0.0000000  0.6508444  3
    456    454    465    469     1  0.0000000  0.6508444  3
    456    454    472    459     1  0.0000000  1.6038667  3
    457    458    459    462     1  0.0000000  0.6508444  3
    457    458    477    467     1  0.0000000  1.2552000  3
    457    455    475    476     1  0.0000000  1.0460000  1
    457    455    475    476     1  0.0000000  0.6694400  3
    458    459    463    473     1  0.0000000  1.0460000  1
    458    459    463    473     1  0.0000000  0.6694400  3
    458    457    464    466     1  0.0000000  1.0460000  1
    458    457    464    466     1  0.0000000  0.6694400  3
    458    457    455    474     1  0.0000000  0.6508444  3
    459    458    477    467     1  0.0000000  1.2552000  3
    459    458    457    461     1  0.0000000  0.6508444  3
    460    458    459    463     1  0.0000000  1.0460000  1
    460    458    459    463     1  0.0000000  0.0000000  3
    460    458    459    472     1  0.0000000  1.0460000  1
    460    458    459    472     1  0.0000000  0.0000000  3
    460    458    459    462     1  0.0000000  0.6508444  3
    460    458    477    467     1  0.0000000  1.2552000  3
    460    458    457    464     1  0.0000000  1.0460000  1
    460    458    457    464     1  0.0000000  0.0000000  3
    460    458    457    461     1  0.0000000  0.6508444  3
    461    457    458    477     1  0.0000000  0.6508444  3
    461    457    464    466     1  0.0000000  0.6973333  3
    461    457    455    475     1  0.0000000  1.0460000  1
    461    457    455    475     1  0.0000000  0.0000000  3
    461    457    455    474     1  0.0000000  0.6508444  3
    462    459    463    473     1  0.0000000  0.6973333  3
    462    459    458    477     1  0.0000000  0.6508444  3
    464    457    455    474     1  0.0000000  1.0460000  1
    464    457    455    474     1  0.0000000  0.0000000  3
    465    454    455    474     1  0.0000000  0.6508444  3
    468    465    470    471     1  0.0000000  0.6973333  3
    468    465    454    472     1  0.0000000  1.0460000  1
    468    465    454    472     1  0.0000000  0.0000000  3
    469    465    470    471     1  0.0000000  0.6973333  3
    469    465    454    472     1  0.0000000  1.0460000  1
    469    465    454    472     1  0.0000000  0.0000000  3
    472    459    463    473     1  0.0000000  0.6973333  3
    472    454    455    474     1  0.0000000  1.0460000  1
    472    454    455    474     1  0.0000000  0.0000000  3
    474    455    475    476     1  0.0000000  0.6973333  3
    478    479    481    485     1  0.0000000  0.6508444  3
    478    479    499    500     1  0.0000000  1.0460000  1
    478    479    499    500     1  0.0000000  0.6694400  3
    478    489    494    495     1  0.0000000  1.0460000  1
    478    489    494    495     1  0.0000000  0.6694400  3
    478    496    483    486     1  0.0000000  1.6038667  3
    479    481    482    484     1  0.0000000  0.6508444  3
    479    481    488    490     1  0.0000000  1.0460000  1
    479    481    488    490     1  0.0000000  0.6694400  3
    479    478    489    492     1  0.0000000  0.6508444  3
    479    478    489    493     1  0.0000000  0.6508444  3
    480    478    479    481     1  0.0000000  0.6508444  3
    480    478    479    499     1  0.0000000  1.0460000  1
    480    478    479    499     1  0.0000000  0.0000000  3
    480    478    479    498     1  0.0000000  0.6508444  3
    480    478    489    494     1  0.0000000  1.0460000  1
    480    478    489    494     1  0.0000000  0.0000000  3
    480    478    489    492     1  0.0000000  0.6508444  3
    480    478    489    493     1  0.0000000  0.6508444  3
    480    478    496    483     1  0.0000000  1.6038667  3
    481    482    483    486     1  0.0000000  0.6508444  3
    481    482    501    491     1  0.0000000  1.2552000  3
    481    479    499    500     1  0.0000000  1.0460000  1
    481    479    499    500     1  0.0000000  0.6694400  3
    482    483    487    497     1  0.0000000  1.0460000  1
    482    483    487    497     1  0.0000000  0.6694400  3
    482    481    488    490     1  0.0000000  1.0460000  1
    482    481    488    490     1  0.0000000  0.6694400  3
    482    481    479    498     1  0.0000000  0.6508444  3
    483    482    501    491     1  0.0000000  1.2552000  3
    483    482    481    485     1  0.0000000  0.6508444  3
    484    482    483    487     1  0.0000000  1.0460000  1
    484    482    483    487     1  0.0000000  0.0000000  3
    484    482    483    496     1  0.0000000  1.0460000  1
    484    482    483    496     1  0.0000000  0.0000000  3
    484    482    483    486     1  0.0000000  0.6508444  3
    484    482    501    491     1  0.0000000  1.2552000  3
    484    482    481    488     1  0.0000000  1.0460000  1
    484    482    481    488     1  0.0000000  0.0000000  3
    484    482    481    485     1  0.0000000  0.6508444  3
    485    481    482    501     1  0.0000000  0.6508444  3
    485    481    488    490     1  0.0000000  0.6973333  3
    485    481    479    499     1  0.0000000  1.0460000  1
    485    481    479    499     1  0.0000000  0.0000000  3
    485    481    479    498     1  0.0000000  0.6508444  3
    486    483    487    497     1  0.0000000  0.6973333  3
    486    483    482    501     1  0.0000000  0.6508444  3
    488    481    479    498     1  0.0000000  1.0460000  1
    488    481    479    498     1  0.0000000  0.0000000  3
    489    478    479    498     1  0.0000000  0.6508444  3
    492    489    494    495     1  0.0000000  0.6973333  3
    492    489    478    496     1  0.0000000  1.0460000  1
    492    489    478    496     1  0.0000000  0.0000000  3
    493    489    494    495     1  0.0000000  0.6973333  3
    493    489    478    496     1  0.0000000  1.0460000  1
    493    489    478    496     1  0.0000000  0.0000000  3
    496    483    487    497     1  0.0000000  0.6973333  3
    496    478    479    498     1  0.0000000  1.0460000  1
    496    478    479    498     1  0.0000000  0.0000000  3
    498    479    499    500     1  0.0000000  0.6973333  3
    503    505    507    509     1  0.0000000  0.6508444  3
    503    505    507    510     1  0.0000000  0.6508444  3
    504    503    505    507     1  0.0000000  0.0000000  2
    504    503    505    506     1  0.0000000  0.0000000  2
    504    503    505    508     1  0.0000000  0.0000000  2
    505    507    511    576     1  0.0000000  0.6508444  3
    506    505    507    511     1  0.0000000  0.6508444  3
    506    505    507    509     1  0.0000000  0.6508444  3
    506    505    507    510     1  0.0000000  0.6508444  3
    507    511    512    521     1  0.0000000  0.6508444  3
    507    511    512    522     1  0.0000000  0.6508444  3
    507    511    513    514     1  0.0000000  0.6508444  3
    507    511    513    516     1  0.0000000  0.6508444  3
    508    505    507    511     1  0.0000000  0.6508444  3
    508    505    507    509     1  0.0000000  0.6508444  3
    508    505    507    510     1  0.0000000  0.6508444  3
    509    507    511    512     1  0.0000000  0.6508444  3
    509    507    511    513     1  0.0000000  0.6508444  3
    509    507    511    576     1  0.0000000  0.6508444  3
    510    507    511    512     1  0.0000000  0.6508444  3
    510    507    511    513     1  0.0000000  0.6508444  3
    510    507    511    576     1  0.0000000  0.6508444  3
    511    512    523    524     1  0.0000000  0.6508444  3
    511    512    523    525     1  0.0000000  0.6508444  3
    511    513    515    517     1  0.0000000  0.6508444  3
    511    513    515    518     1  0.0000000  0.6508444  3
    512    511    513    514     1  0.0000000  0.6508444  3
    512    511    513    516     1  0.0000000  0.6508444  3
    513    511    512    521     1  0.0000000  0.6508444  3
    513    511    512    522     1  0.0000000  0.6508444  3
    514    513    511    576     1  0.0000000  0.6508444  3
    514    513    515    519     1  0.0000000  0.6508444  3
    514    513    515    517     1  0.0000000  0.6508444  3
    514    513    515    518     1  0.0000000  0.6508444  3
    515    513    511    576     1  0.0000000  0.6508444  3
    515    519    551    541     1  180.0000771  6.0668000  2
    515    519    551    541     1  180.0000771  1.4644000  4
    516    513    511    576     1  0.0000000  0.6508444  3
    516    513    515    519     1  0.0000000  0.6508444  3
    516    513    515    517     1  0.0000000  0.6508444  3
    516    513    515    518     1  0.0000000  0.6508444  3
    517    515    519    520     1  0.0000000  3.3472000  1
    517    515    519    520     1  0.0000000  0.0000000  2
    517    515    519    520     1  180.0000771  0.3347200  3
    517    515    519    551     1  180.0000771  0.0000000  2
    518    515    519    520     1  0.0000000  3.3472000  1
    518    515    519    520     1  0.0000000  0.0000000  2
    518    515    519    520     1  180.0000771  0.3347200  3
    518    515    519    551     1  180.0000771  0.0000000  2
    519    551    532    534     1  0.0000000  1.2552000  3
    520    519    551    541     1  180.0000771  6.0668000  2
    520    519    551    541     1  180.0000771  1.4644000  4
    521    512    511    576     1  0.0000000  0.6508444  3
    521    512    523    526     1  0.0000000  0.6508444  3
    521    512    523    524     1  0.0000000  0.6508444  3
    521    512    523    525     1  0.0000000  0.6508444  3
    522    512    511    576     1  0.0000000  0.6508444  3
    522    512    523    526     1  0.0000000  0.6508444  3
    522    512    523    524     1  0.0000000  0.6508444  3
    522    512    523    525     1  0.0000000  0.6508444  3
    523    512    511    576     1  0.0000000  0.6508444  3
    523    526    575    565     1  180.0000771  6.0668000  2
    523    526    575    565     1  180.0000771  1.4644000  4
    524    523    526    527     1  0.0000000  3.3472000  1
    524    523    526    527     1  0.0000000  0.0000000  2
    524    523    526    527     1  180.0000771  0.3347200  3
    524    523    526    575     1  180.0000771  0.0000000  2
    525    523    526    527     1  0.0000000  3.3472000  1
    525    523    526    527     1  0.0000000  0.0000000  2
    525    523    526    527     1  180.0000771  0.3347200  3
    525    523    526    575     1  180.0000771  0.0000000  2
    526    575    556    558     1  0.0000000  1.2552000  3
    527    526    575    565     1  180.0000771  6.0668000  2
    527    526    575    565     1  180.0000771  1.4644000  4
    528    529    531    535     1  0.0000000  0.6508444  3
    528    529    549    550     1  0.0000000  1.0460000  1
    528    529    549    550     1  0.0000000  0.6694400  3
    528    539    544    545     1  0.0000000  1.0460000  1
    528    539    544    545     1  0.0000000  0.6694400  3
    528    546    533    536     1  0.0000000  1.6038667  3
    529    528    539    542     1  0.0000000  0.6508444  3
    529    528    539    543     1  0.0000000  0.6508444  3
    529    531    532    534     1  0.0000000  0.6508444  3
    529    531    538    540     1  0.0000000  1.0460000  1
    529    531    538    540     1  0.0000000  0.6694400  3
    530    528    529    531     1  0.0000000  0.6508444  3
    530    528    529    549     1  0.0000000  1.0460000  1
    530    528    529    549     1  0.0000000  0.0000000  3
    530    528    529    548     1  0.0000000  0.6508444  3
    530    528    539    544     1  0.0000000  1.0460000  1
    530    528    539    544     1  0.0000000  0.0000000  3
    530    528    539    542     1  0.0000000  0.6508444  3
    530    528    539    543     1  0.0000000  0.6508444  3
    530    528    546    533     1  0.0000000  1.6038667  3
    531    529    549    550     1  0.0000000  1.0460000  1
    531    529    549    550     1  0.0000000  0.6694400  3
    531    532    533    536     1  0.0000000  0.6508444  3
    531    532    551    541     1  0.0000000  1.2552000  3
    532    531    529    548     1  0.0000000  0.6508444  3
    532    531    538    540     1  0.0000000  1.0460000  1
    532    531    538    540     1  0.0000000  0.6694400  3
    532    533    537    547     1  0.0000000  1.0460000  1
    532    533    537    547     1  0.0000000  0.6694400  3
    533    532    531    535     1  0.0000000  0.6508444  3
    533    532    551    541     1  0.0000000  1.2552000  3
    534    532    531    538     1  0.0000000  1.0460000  1
    534    532    531    538     1  0.0000000  0.0000000  3
    534    532    531    535     1  0.0000000  0.6508444  3
    534    532    533    537     1  0.0000000  1.0460000  1
    534    532    533    537     1  0.0000000  0.0000000  3
    534    532    533    546     1  0.0000000  1.0460000  1
    534    532    533    546     1  0.0000000  0.0000000  3
    534    532    533    536     1  0.0000000  0.6508444  3
    534    532    551    541     1  0.0000000  1.2552000  3
    535    531    529    549     1  0.0000000  1.0460000  1
    535    531    529    549     1  0.0000000  0.0000000  3
    535    531    529    548     1  0.0000000  0.6508444  3
    535    531    532    551     1  0.0000000  0.6508444  3
    535    531    538    540     1  0.0000000  0.6973333  3
    536    533    532    551     1  0.0000000  0.6508444  3
    536    533    537    547     1  0.0000000  0.6973333  3
    538    531    529    548     1  0.0000000  1.0460000  1
    538    531    529    548     1  0.0000000  0.0000000  3
    539    528    529    548     1  0.0000000  0.6508444  3
    542    539    528    546     1  0.0000000  1.0460000  1
    542    539    528    546     1  0.0000000  0.0000000  3
    542    539    544    545     1  0.0000000  0.6973333  3
    543    539    528    546     1  0.0000000  1.0460000  1
    543    539    528    546     1  0.0000000  0.0000000  3
    543    539    544    545     1  0.0000000  0.6973333  3
    546    528    529    548     1  0.0000000  1.0460000  1
    546    528    529    548     1  0.0000000  0.0000000  3
    546    533    537    547     1  0.0000000  0.6973333  3
    548    529    549    550     1  0.0000000  0.6973333  3
    552    553    555    559     1  0.0000000  0.6508444  3
    552    553    573    574     1  0.0000000  1.0460000  1
    552    553    573    574     1  0.0000000  0.6694400  3
    552    563    568    569     1  0.0000000  1.0460000  1
    552    563    568    569     1  0.0000000  0.6694400  3
    552    570    557    560     1  0.0000000  1.6038667  3
    553    552    563    566     1  0.0000000  0.6508444  3
    553    552    563    567     1  0.0000000  0.6508444  3
    553    555    556    558     1  0.0000000  0.6508444  3
    553    555    562    564     1  0.0000000  1.0460000  1
    553    555    562    564     1  0.0000000  0.6694400  3
    554    552    553    555     1  0.0000000  0.6508444  3
    554    552    553    573     1  0.0000000  1.0460000  1
    554    552    553    573     1  0.0000000  0.0000000  3
    554    552    553    572     1  0.0000000  0.6508444  3
    554    552    563    568     1  0.0000000  1.0460000  1
    554    552    563    568     1  0.0000000  0.0000000  3
    554    552    563    566     1  0.0000000  0.6508444  3
    554    552    563    567     1  0.0000000  0.6508444  3
    554    552    570    557     1  0.0000000  1.6038667  3
    555    553    573    574     1  0.0000000  1.0460000  1
    555    553    573    574     1  0.0000000  0.6694400  3
    555    556    557    560     1  0.0000000  0.6508444  3
    555    556    575    565     1  0.0000000  1.2552000  3
    556    555    553    572     1  0.0000000  0.6508444  3
    556    555    562    564     1  0.0000000  1.0460000  1
    556    555    562    564     1  0.0000000  0.6694400  3
    556    557    561    571     1  0.0000000  1.0460000  1
    556    557    561    571     1  0.0000000  0.6694400  3
    557    556    555    559     1  0.0000000  0.6508444  3
    557    556    575    565     1  0.0000000  1.2552000  3
    558    556    555    562     1  0.0000000  1.0460000  1
    558    556    555    562     1  0.0000000  0.0000000  3
    558    556    555    559     1  0.0000000  0.6508444  3
    558    556    557    561     1  0.0000000  1.0460000  1
    558    556    557    561     1  0.0000000  0.0000000  3
    558    556    557    570     1  0.0000000  1.0460000  1
    558    556    557    570     1  0.0000000  0.0000000  3
    558    556    557    560     1  0.0000000  0.6508444  3
    558    556    575    565     1  0.0000000  1.2552000  3
    559    555    553    573     1  0.0000000  1.0460000  1
    559    555    553    573     1  0.0000000  0.0000000  3
    559    555    553    572     1  0.0000000  0.6508444  3
    559    555    556    575     1  0.0000000  0.6508444  3
    559    555    562    564     1  0.0000000  0.6973333  3
    560    557    556    575     1  0.0000000  0.6508444  3
    560    557    561    571     1  0.0000000  0.6973333  3
    562    555    553    572     1  0.0000000  1.0460000  1
    562    555    553    572     1  0.0000000  0.0000000  3
    563    552    553    572     1  0.0000000  0.6508444  3
    566    563    552    570     1  0.0000000  1.0460000  1
    566    563    552    570     1  0.0000000  0.0000000  3
    566    563    568    569     1  0.0000000  0.6973333  3
    567    563    552    570     1  0.0000000  1.0460000  1
    567    563    552    570     1  0.0000000  0.0000000  3
    567    563    568    569     1  0.0000000  0.6973333  3
    570    552    553    572     1  0.0000000  1.0460000  1
    570    552    553    572     1  0.0000000  0.0000000  3
    570    557    561    571     1  0.0000000  0.6973333  3
    572    553    573    574     1  0.0000000  0.6973333  3
    577    579    581    583     1  0.0000000  0.6508444  3
    577    579    581    584     1  0.0000000  0.6508444  3
    578    577    579    581     1  0.0000000  0.0000000  2
    578    577    579    580     1  0.0000000  0.0000000  2
    578    577    579    582     1  0.0000000  0.0000000  2
    579    581    585    650     1  0.0000000  0.6508444  3
    580    579    581    585     1  0.0000000  0.6508444  3
    580    579    581    583     1  0.0000000  0.6508444  3
    580    579    581    584     1  0.0000000  0.6508444  3
    581    585    586    595     1  0.0000000  0.6508444  3
    581    585    586    596     1  0.0000000  0.6508444  3
    581    585    587    588     1  0.0000000  0.6508444  3
    581    585    587    590     1  0.0000000  0.6508444  3
    582    579    581    585     1  0.0000000  0.6508444  3
    582    579    581    583     1  0.0000000  0.6508444  3
    582    579    581    584     1  0.0000000  0.6508444  3
    583    581    585    586     1  0.0000000  0.6508444  3
    583    581    585    587     1  0.0000000  0.6508444  3
    583    581    585    650     1  0.0000000  0.6508444  3
    584    581    585    586     1  0.0000000  0.6508444  3
    584    581    585    587     1  0.0000000  0.6508444  3
    584    581    585    650     1  0.0000000  0.6508444  3
    585    586    597    598     1  0.0000000  0.6508444  3
    585    586    597    599     1  0.0000000  0.6508444  3
    585    587    589    591     1  0.0000000  0.6508444  3
    585    587    589    592     1  0.0000000  0.6508444  3
    586    585    587    588     1  0.0000000  0.6508444  3
    586    585    587    590     1  0.0000000  0.6508444  3
    587    585    586    595     1  0.0000000  0.6508444  3
    587    585    586    596     1  0.0000000  0.6508444  3
    588    587    589    593     1  0.0000000  0.6508444  3
    588    587    589    591     1  0.0000000  0.6508444  3
    588    587    589    592     1  0.0000000  0.6508444  3
    588    587    585    650     1  0.0000000  0.6508444  3
    589    593    625    615     1  180.0000771  6.0668000  2
    589    593    625    615     1  180.0000771  1.4644000  4
    589    587    585    650     1  0.0000000  0.6508444  3
    590    587    589    593     1  0.0000000  0.6508444  3
    590    587    589    591     1  0.0000000  0.6508444  3
    590    587    589    592     1  0.0000000  0.6508444  3
    590    587    585    650     1  0.0000000  0.6508444  3
    591    589    593    594     1  0.0000000  3.3472000  1
    591    589    593    594     1  0.0000000  0.0000000  2
    591    589    593    594     1  180.0000771  0.3347200  3
    591    589    593    625     1  180.0000771  0.0000000  2
    592    589    593    594     1  0.0000000  3.3472000  1
    592    589    593    594     1  0.0000000  0.0000000  2
    592    589    593    594     1  180.0000771  0.3347200  3
    592    589    593    625     1  180.0000771  0.0000000  2
    593    625    606    608     1  0.0000000  1.2552000  3
    594    593    625    615     1  180.0000771  6.0668000  2
    594    593    625    615     1  180.0000771  1.4644000  4
    595    586    597    600     1  0.0000000  0.6508444  3
    595    586    597    598     1  0.0000000  0.6508444  3
    595    586    597    599     1  0.0000000  0.6508444  3
    595    586    585    650     1  0.0000000  0.6508444  3
    596    586    597    600     1  0.0000000  0.6508444  3
    596    586    597    598     1  0.0000000  0.6508444  3
    596    586    597    599     1  0.0000000  0.6508444  3
    596    586    585    650     1  0.0000000  0.6508444  3
    597    600    649    639     1  180.0000771  6.0668000  2
    597    600    649    639     1  180.0000771  1.4644000  4
    597    586    585    650     1  0.0000000  0.6508444  3
    598    597    600    601     1  0.0000000  3.3472000  1
    598    597    600    601     1  0.0000000  0.0000000  2
    598    597    600    601     1  180.0000771  0.3347200  3
    598    597    600    649     1  180.0000771  0.0000000  2
    599    597    600    601     1  0.0000000  3.3472000  1
    599    597    600    601     1  0.0000000  0.0000000  2
    599    597    600    601     1  180.0000771  0.3347200  3
    599    597    600    649     1  180.0000771  0.0000000  2
    600    649    630    632     1  0.0000000  1.2552000  3
    601    600    649    639     1  180.0000771  6.0668000  2
    601    600    649    639     1  180.0000771  1.4644000  4
    602    603    605    609     1  0.0000000  0.6508444  3
    602    603    623    624     1  0.0000000  1.0460000  1
    602    603    623    624     1  0.0000000  0.6694400  3
    602    613    618    619     1  0.0000000  1.0460000  1
    602    613    618    619     1  0.0000000  0.6694400  3
    602    620    607    610     1  0.0000000  1.6038667  3
    603    605    606    608     1  0.0000000  0.6508444  3
    603    605    612    614     1  0.0000000  1.0460000  1
    603    605    612    614     1  0.0000000  0.6694400  3
    603    602    613    616     1  0.0000000  0.6508444  3
    603    602    613    617     1  0.0000000  0.6508444  3
    604    602    603    605     1  0.0000000  0.6508444  3
    604    602    603    623     1  0.0000000  1.0460000  1
    604    602    603    623     1  0.0000000  0.0000000  3
    604    602    603    622     1  0.0000000  0.6508444  3
    604    602    613    618     1  0.0000000  1.0460000  1
    604    602    613    618     1  0.0000000  0.0000000  3
    604    602    613    616     1  0.0000000  0.6508444  3
    604    602    613    617     1  0.0000000  0.6508444  3
    604    602    620    607     1  0.0000000  1.6038667  3
    605    606    607    610     1  0.0000000  0.6508444  3
    605    606    625    615     1  0.0000000  1.2552000  3
    605    603    623    624     1  0.0000000  1.0460000  1
    605    603    623    624     1  0.0000000  0.6694400  3
    606    607    611    621     1  0.0000000  1.0460000  1
    606    607    611    621     1  0.0000000  0.6694400  3
    606    605    612    614     1  0.0000000  1.0460000  1
    606    605    612    614     1  0.0000000  0.6694400  3
    606    605    603    622     1  0.0000000  0.6508444  3
    607    606    625    615     1  0.0000000  1.2552000  3
    607    606    605    609     1  0.0000000  0.6508444  3
    608    606    607    611     1  0.0000000  1.0460000  1
    608    606    607    611     1  0.0000000  0.0000000  3
    608    606    607    620     1  0.0000000  1.0460000  1
    608    606    607    620     1  0.0000000  0.0000000  3
    608    606    607    610     1  0.0000000  0.6508444  3
    608    606    625    615     1  0.0000000  1.2552000  3
    608    606    605    612     1  0.0000000  1.0460000  1
    608    606    605    612     1  0.0000000  0.0000000  3
    608    606    605    609     1  0.0000000  0.6508444  3
    609    605    606    625     1  0.0000000  0.6508444  3
    609    605    612    614     1  0.0000000  0.6973333  3
    609    605    603    623     1  0.0000000  1.0460000  1
    609    605    603    623     1  0.0000000  0.0000000  3
    609    605    603    622     1  0.0000000  0.6508444  3
    610    607    611    621     1  0.0000000  0.6973333  3
    610    607    606    625     1  0.0000000  0.6508444  3
    612    605    603    622     1  0.0000000  1.0460000  1
    612    605    603    622     1  0.0000000  0.0000000  3
    613    602    603    622     1  0.0000000  0.6508444  3
    616    613    618    619     1  0.0000000  0.6973333  3
    616    613    602    620     1  0.0000000  1.0460000  1
    616    613    602    620     1  0.0000000  0.0000000  3
    617    613    618    619     1  0.0000000  0.6973333  3
    617    613    602    620     1  0.0000000  1.0460000  1
    617    613    602    620     1  0.0000000  0.0000000  3
    620    607    611    621     1  0.0000000  0.6973333  3
    620    602    603    622     1  0.0000000  1.0460000  1
    620    602    603    622     1  0.0000000  0.0000000  3
    622    603    623    624     1  0.0000000  0.6973333  3
    626    627    629    633     1  0.0000000  0.6508444  3
    626    627    647    648     1  0.0000000  1.0460000  1
    626    627    647    648     1  0.0000000  0.6694400  3
    626    637    642    643     1  0.0000000  1.0460000  1
    626    637    642    643     1  0.0000000  0.6694400  3
    626    644    631    634     1  0.0000000  1.6038667  3
    627    629    630    632     1  0.0000000  0.6508444  3
    627    629    636    638     1  0.0000000  1.0460000  1
    627    629    636    638     1  0.0000000  0.6694400  3
    627    626    637    640     1  0.0000000  0.6508444  3
    627    626    637    641     1  0.0000000  0.6508444  3
    628    626    627    629     1  0.0000000  0.6508444  3
    628    626    627    647     1  0.0000000  1.0460000  1
    628    626    627    647     1  0.0000000  0.0000000  3
    628    626    627    646     1  0.0000000  0.6508444  3
    628    626    637    642     1  0.0000000  1.0460000  1
    628    626    637    642     1  0.0000000  0.0000000  3
    628    626    637    640     1  0.0000000  0.6508444  3
    628    626    637    641     1  0.0000000  0.6508444  3
    628    626    644    631     1  0.0000000  1.6038667  3
    629    630    631    634     1  0.0000000  0.6508444  3
    629    630    649    639     1  0.0000000  1.2552000  3
    629    627    647    648     1  0.0000000  1.0460000  1
    629    627    647    648     1  0.0000000  0.6694400  3
    630    631    635    645     1  0.0000000  1.0460000  1
    630    631    635    645     1  0.0000000  0.6694400  3
    630    629    636    638     1  0.0000000  1.0460000  1
    630    629    636    638     1  0.0000000  0.6694400  3
    630    629    627    646     1  0.0000000  0.6508444  3
    631    630    649    639     1  0.0000000  1.2552000  3
    631    630    629    633     1  0.0000000  0.6508444  3
    632    630    631    635     1  0.0000000  1.0460000  1
    632    630    631    635     1  0.0000000  0.0000000  3
    632    630    631    644     1  0.0000000  1.0460000  1
    632    630    631    644     1  0.0000000  0.0000000  3
    632    630    631    634     1  0.0000000  0.6508444  3
    632    630    649    639     1  0.0000000  1.2552000  3
    632    630    629    636     1  0.0000000  1.0460000  1
    632    630    629    636     1  0.0000000  0.0000000  3
    632    630    629    633     1  0.0000000  0.6508444  3
    633    629    630    649     1  0.0000000  0.6508444  3
    633    629    636    638     1  0.0000000  0.6973333  3
    633    629    627    647     1  0.0000000  1.0460000  1
    633    629    627    647     1  0.0000000  0.0000000  3
    633    629    627    646     1  0.0000000  0.6508444  3
    634    631    635    645     1  0.0000000  0.6973333  3
    634    631    630    649     1  0.0000000  0.6508444  3
    636    629    627    646     1  0.0000000  1.0460000  1
    636    629    627    646     1  0.0000000  0.0000000  3
    637    626    627    646     1  0.0000000  0.6508444  3
    640    637    642    643     1  0.0000000  0.6973333  3
    640    637    626    644     1  0.0000000  1.0460000  1
    640    637    626    644     1  0.0000000  0.0000000  3
    641    637    642    643     1  0.0000000  0.6973333  3
    641    637    626    644     1  0.0000000  1.0460000  1
    641    637    626    644     1  0.0000000  0.0000000  3
    644    631    635    645     1  0.0000000  0.6973333  3
    644    626    627    646     1  0.0000000  1.0460000  1
    644    626    627    646     1  0.0000000  0.0000000  3
    646    627    647    648     1  0.0000000  0.6973333  3
    651    653    655    657     1  0.0000000  0.6508444  3
    651    653    655    658     1  0.0000000  0.6508444  3
    652    651    653    655     1  0.0000000  0.0000000  2
    652    651    653    654     1  0.0000000  0.0000000  2
    652    651    653    656     1  0.0000000  0.0000000  2
    653    655    659    724     1  0.0000000  0.6508444  3
    654    653    655    659     1  0.0000000  0.6508444  3
    654    653    655    657     1  0.0000000  0.6508444  3
    654    653    655    658     1  0.0000000  0.6508444  3
    655    659    660    669     1  0.0000000  0.6508444  3
    655    659    660    670     1  0.0000000  0.6508444  3
    655    659    661    662     1  0.0000000  0.6508444  3
    655    659    661    664     1  0.0000000  0.6508444  3
    656    653    655    659     1  0.0000000  0.6508444  3
    656    653    655    657     1  0.0000000  0.6508444  3
    656    653    655    658     1  0.0000000  0.6508444  3
    657    655    659    660     1  0.0000000  0.6508444  3
    657    655    659    661     1  0.0000000  0.6508444  3
    657    655    659    724     1  0.0000000  0.6508444  3
    658    655    659    660     1  0.0000000  0.6508444  3
    658    655    659    661     1  0.0000000  0.6508444  3
    658    655    659    724     1  0.0000000  0.6508444  3
    659    660    671    672     1  0.0000000  0.6508444  3
    659    660    671    673     1  0.0000000  0.6508444  3
    659    661    663    665     1  0.0000000  0.6508444  3
    659    661    663    666     1  0.0000000  0.6508444  3
    660    659    661    662     1  0.0000000  0.6508444  3
    660    659    661    664     1  0.0000000  0.6508444  3
    661    659    660    669     1  0.0000000  0.6508444  3
    661    659    660    670     1  0.0000000  0.6508444  3
    662    661    659    724     1  0.0000000  0.6508444  3
    662    661    663    667     1  0.0000000  0.6508444  3
    662    661    663    665     1  0.0000000  0.6508444  3
    662    661    663    666     1  0.0000000  0.6508444  3
    663    661    659    724     1  0.0000000  0.6508444  3
    663    667    699    689     1  180.0000771  6.0668000  2
    663    667    699    689     1  180.0000771  1.4644000  4
    664    661    659    724     1  0.0000000  0.6508444  3
    664    661    663    667     1  0.0000000  0.6508444  3
    664    661    663    665     1  0.0000000  0.6508444  3
    664    661    663    666     1  0.0000000  0.6508444  3
    665    663    667    668     1  0.0000000  3.3472000  1
    665    663    667    668     1  0.0000000  0.0000000  2
    665    663    667    668     1  180.0000771  0.3347200  3
    665    663    667    699     1  180.0000771  0.0000000  2
    666    663    667    668     1  0.0000000  3.3472000  1
    666    663    667    668     1  0.0000000  0.0000000  2
    666    663    667    668     1  180.0000771  0.3347200  3
    666    663    667    699     1  180.0000771  0.0000000  2
    667    699    680    682     1  0.0000000  1.2552000  3
    668    667    699    689     1  180.0000771  6.0668000  2
    668    667    699    689     1  180.0000771  1.4644000  4
    669    660    659    724     1  0.0000000  0.6508444  3
    669    660    671    674     1  0.0000000  0.6508444  3
    669    660    671    672     1  0.0000000  0.6508444  3
    669    660    671    673     1  0.0000000  0.6508444  3
    670    660    659    724     1  0.0000000  0.6508444  3
    670    660    671    674     1  0.0000000  0.6508444  3
    670    660    671    672     1  0.0000000  0.6508444  3
    670    660    671    673     1  0.0000000  0.6508444  3
    671    660    659    724     1  0.0000000  0.6508444  3
    671    674    723    713     1  180.0000771  6.0668000  2
    671    674    723    713     1  180.0000771  1.4644000  4
    672    671    674    675     1  0.0000000  3.3472000  1
    672    671    674    675     1  0.0000000  0.0000000  2
    672    671    674    675     1  180.0000771  0.3347200  3
    672    671    674    723     1  180.0000771  0.0000000  2
    673    671    674    675     1  0.0000000  3.3472000  1
    673    671    674    675     1  0.0000000  0.0000000  2
    673    671    674    675     1  180.0000771  0.3347200  3
    673    671    674    723     1  180.0000771  0.0000000  2
    674    723    704    706     1  0.0000000  1.2552000  3
    675    674    723    713     1  180.0000771  6.0668000  2
    675    674    723    713     1  180.0000771  1.4644000  4
    676    677    679    683     1  0.0000000  0.6508444  3
    676    677    697    698     1  0.0000000  1.0460000  1
    676    677    697    698     1  0.0000000  0.6694400  3
    676    687    692    693     1  0.0000000  1.0460000  1
    676    687    692    693     1  0.0000000  0.6694400  3
    676    694    681    684     1  0.0000000  1.6038667  3
    677    676    687    690     1  0.0000000  0.6508444  3
    677    676    687    691     1  0.0000000  0.6508444  3
    677    679    680    682     1  0.0000000  0.6508444  3
    677    679    686    688     1  0.0000000  1.0460000  1
    677    679    686    688     1  0.0000000  0.6694400  3
    678    676    677    679     1  0.0000000  0.6508444  3
    678    676    677    697     1  0.0000000  1.0460000  1
    678    676    677    697     1  0.0000000  0.0000000  3
    678    676    677    696     1  0.0000000  0.6508444  3
    678    676    687    692     1  0.0000000  1.0460000  1
    678    676    687    692     1  0.0000000  0.0000000  3
    678    676    687    690     1  0.0000000  0.6508444  3
    678    676    687    691     1  0.0000000  0.6508444  3
    678    676    694    681     1  0.0000000  1.6038667  3
    679    677    697    698     1  0.0000000  1.0460000  1
    679    677    697    698     1  0.0000000  0.6694400  3
    679    680    681    684     1  0.0000000  0.6508444  3
    679    680    699    689     1  0.0000000  1.2552000  3
    680    679    677    696     1  0.0000000  0.6508444  3
    680    679    686    688     1  0.0000000  1.0460000  1
    680    679    686    688     1  0.0000000  0.6694400  3
    680    681    685    695     1  0.0000000  1.0460000  1
    680    681    685    695     1  0.0000000  0.6694400  3
    681    680    679    683     1  0.0000000  0.6508444  3
    681    680    699    689     1  0.0000000  1.2552000  3
    682    680    679    686     1  0.0000000  1.0460000  1
    682    680    679    686     1  0.0000000  0.0000000  3
    682    680    679    683     1  0.0000000  0.6508444  3
    682    680    681    685     1  0.0000000  1.0460000  1
    682    680    681    685     1  0.0000000  0.0000000  3
    682    680    681    694     1  0.0000000  1.0460000  1
    682    680    681    694     1  0.0000000  0.0000000  3
    682    680    681    684     1  0.0000000  0.6508444  3
    682    680    699    689     1  0.0000000  1.2552000  3
    683    679    677    697     1  0.0000000  1.0460000  1
    683    679    677    697     1  0.0000000  0.0000000  3
    683    679    677    696     1  0.0000000  0.6508444  3
    683    679    680    699     1  0.0000000  0.6508444  3
    683    679    686    688     1  0.0000000  0.6973333  3
    684    681    680    699     1  0.0000000  0.6508444  3
    684    681    685    695     1  0.0000000  0.6973333  3
    686    679    677    696     1  0.0000000  1.0460000  1
    686    679    677    696     1  0.0000000  0.0000000  3
    687    676    677    696     1  0.0000000  0.6508444  3
    690    687    676    694     1  0.0000000  1.0460000  1
    690    687    676    694     1  0.0000000  0.0000000  3
    690    687    692    693     1  0.0000000  0.6973333  3
    691    687    676    694     1  0.0000000  1.0460000  1
    691    687    676    694     1  0.0000000  0.0000000  3
    691    687    692    693     1  0.0000000  0.6973333  3
    694    676    677    696     1  0.0000000  1.0460000  1
    694    676    677    696     1  0.0000000  0.0000000  3
    694    681    685    695     1  0.0000000  0.6973333  3
    696    677    697    698     1  0.0000000  0.6973333  3
    700    701    703    707     1  0.0000000  0.6508444  3
    700    701    721    722     1  0.0000000  1.0460000  1
    700    701    721    722     1  0.0000000  0.6694400  3
    700    711    716    717     1  0.0000000  1.0460000  1
    700    711    716    717     1  0.0000000  0.6694400  3
    700    718    705    708     1  0.0000000  1.6038667  3
    701    700    711    714     1  0.0000000  0.6508444  3
    701    700    711    715     1  0.0000000  0.6508444  3
    701    703    704    706     1  0.0000000  0.6508444  3
    701    703    710    712     1  0.0000000  1.0460000  1
    701    703    710    712     1  0.0000000  0.6694400  3
    702    700    701    703     1  0.0000000  0.6508444  3
    702    700    701    721     1  0.0000000  1.0460000  1
    702    700    701    721     1  0.0000000  0.0000000  3
    702    700    701    720     1  0.0000000  0.6508444  3
    702    700    711    716     1  0.0000000  1.0460000  1
    702    700    711    716     1  0.0000000  0.0000000  3
    702    700    711    714     1  0.0000000  0.6508444  3
    702    700    711    715     1  0.0000000  0.6508444  3
    702    700    718    705     1  0.0000000  1.6038667  3
    703    701    721    722     1  0.0000000  1.0460000  1
    703    701    721    722     1  0.0000000  0.6694400  3
    703    704    705    708     1  0.0000000  0.6508444  3
    703    704    723    713     1  0.0000000  1.2552000  3
    704    703    701    720     1  0.0000000  0.6508444  3
    704    703    710    712     1  0.0000000  1.0460000  1
    704    703    710    712     1  0.0000000  0.6694400  3
    704    705    709    719     1  0.0000000  1.0460000  1
    704    705    709    719     1  0.0000000  0.6694400  3
    705    704    703    707     1  0.0000000  0.6508444  3
    705    704    723    713     1  0.0000000  1.2552000  3
    706    704    703    710     1  0.0000000  1.0460000  1
    706    704    703    710     1  0.0000000  0.0000000  3
    706    704    703    707     1  0.0000000  0.6508444  3
    706    704    705    709     1  0.0000000  1.0460000  1
    706    704    705    709     1  0.0000000  0.0000000  3
    706    704    705    718     1  0.0000000  1.0460000  1
    706    704    705    718     1  0.0000000  0.0000000  3
    706    704    705    708     1  0.0000000  0.6508444  3
    706    704    723    713     1  0.0000000  1.2552000  3
    707    703    701    721     1  0.0000000  1.0460000  1
    707    703    701    721     1  0.0000000  0.0000000  3
    707    703    701    720     1  0.0000000  0.6508444  3
    707    703    704    723     1  0.0000000  0.6508444  3
    707    703    710    712     1  0.0000000  0.6973333  3
    708    705    704    723     1  0.0000000  0.6508444  3
    708    705    709    719     1  0.0000000  0.6973333  3
    710    703    701    720     1  0.0000000  1.0460000  1
    710    703    701    720     1  0.0000000  0.0000000  3
    711    700    701    720     1  0.0000000  0.6508444  3
    714    711    700    718     1  0.0000000  1.0460000  1
    714    711    700    718     1  0.0000000  0.0000000  3
    714    711    716    717     1  0.0000000  0.6973333  3
    715    711    700    718     1  0.0000000  1.0460000  1
    715    711    700    718     1  0.0000000  0.0000000  3
    715    711    716    717     1  0.0000000  0.6973333  3
    718    700    701    720     1  0.0000000  1.0460000  1
    718    700    701    720     1  0.0000000  0.0000000  3
    718    705    709    719     1  0.0000000  0.6973333  3
    720    701    721    722     1  0.0000000  0.6973333  3
    725    727    729    731     1  0.0000000  0.6508444  3
    725    727    729    732     1  0.0000000  0.6508444  3
    726    725    727    729     1  0.0000000  0.0000000  2
    726    725    727    728     1  0.0000000  0.0000000  2
    726    725    727    730     1  0.0000000  0.0000000  2
    727    729    733    798     1  0.0000000  0.6508444  3
    728    727    729    733     1  0.0000000  0.6508444  3
    728    727    729    731     1  0.0000000  0.6508444  3
    728    727    729    732     1  0.0000000  0.6508444  3
    729    733    734    743     1  0.0000000  0.6508444  3
    729    733    734    744     1  0.0000000  0.6508444  3
    729    733    735    736     1  0.0000000  0.6508444  3
    729    733    735    738     1  0.0000000  0.6508444  3
    730    727    729    733     1  0.0000000  0.6508444  3
    730    727    729    731     1  0.0000000  0.6508444  3
    730    727    729    732     1  0.0000000  0.6508444  3
    731    729    733    734     1  0.0000000  0.6508444  3
    731    729    733    735     1  0.0000000  0.6508444  3
    731    729    733    798     1  0.0000000  0.6508444  3
    732    729    733    734     1  0.0000000  0.6508444  3
    732    729    733    735     1  0.0000000  0.6508444  3
    732    729    733    798     1  0.0000000  0.6508444  3
    733    734    745    746     1  0.0000000  0.6508444  3
    733    734    745    747     1  0.0000000  0.6508444  3
    733    735    737    739     1  0.0000000  0.6508444  3
    733    735    737    740     1  0.0000000  0.6508444  3
    734    733    735    736     1  0.0000000  0.6508444  3
    734    733    735    738     1  0.0000000  0.6508444  3
    735    733    734    743     1  0.0000000  0.6508444  3
    735    733    734    744     1  0.0000000  0.6508444  3
    736    735    737    741     1  0.0000000  0.6508444  3
    736    735    737    739     1  0.0000000  0.6508444  3
    736    735    737    740     1  0.0000000  0.6508444  3
    736    735    733    798     1  0.0000000  0.6508444  3
    737    741    773    763     1  180.0000771  6.0668000  2
    737    741    773    763     1  180.0000771  1.4644000  4
    737    735    733    798     1  0.0000000  0.6508444  3
    738    735    737    741     1  0.0000000  0.6508444  3
    738    735    737    739     1  0.0000000  0.6508444  3
    738    735    737    740     1  0.0000000  0.6508444  3
    738    735    733    798     1  0.0000000  0.6508444  3
    739    737    741    742     1  0.0000000  3.3472000  1
    739    737    741    742     1  0.0000000  0.0000000  2
    739    737    741    742     1  180.0000771  0.3347200  3
    739    737    741    773     1  180.0000771  0.0000000  2
    740    737    741    742     1  0.0000000  3.3472000  1
    740    737    741    742     1  0.0000000  0.0000000  2
    740    737    741    742     1  180.0000771  0.3347200  3
    740    737    741    773     1  180.0000771  0.0000000  2
    741    773    754    756     1  0.0000000  1.2552000  3
    742    741    773    763     1  180.0000771  6.0668000  2
    742    741    773    763     1  180.0000771  1.4644000  4
    743    734    745    748     1  0.0000000  0.6508444  3
    743    734    745    746     1  0.0000000  0.6508444  3
    743    734    745    747     1  0.0000000  0.6508444  3
    743    734    733    798     1  0.0000000  0.6508444  3
    744    734    745    748     1  0.0000000  0.6508444  3
    744    734    745    746     1  0.0000000  0.6508444  3
    744    734    745    747     1  0.0000000  0.6508444  3
    744    734    733    798     1  0.0000000  0.6508444  3
    745    748    797    787     1  180.0000771  6.0668000  2
    745    748    797    787     1  180.0000771  1.4644000  4
    745    734    733    798     1  0.0000000  0.6508444  3
    746    745    748    749     1  0.0000000  3.3472000  1
    746    745    748    749     1  0.0000000  0.0000000  2
    746    745    748    749     1  180.0000771  0.3347200  3
    746    745    748    797     1  180.0000771  0.0000000  2
    747    745    748    749     1  0.0000000  3.3472000  1
    747    745    748    749     1  0.0000000  0.0000000  2
    747    745    748    749     1  180.0000771  0.3347200  3
    747    745    748    797     1  180.0000771  0.0000000  2
    748    797    778    780     1  0.0000000  1.2552000  3
    749    748    797    787     1  180.0000771  6.0668000  2
    749    748    797    787     1  180.0000771  1.4644000  4
    750    751    753    757     1  0.0000000  0.6508444  3
    750    751    771    772     1  0.0000000  1.0460000  1
    750    751    771    772     1  0.0000000  0.6694400  3
    750    761    766    767     1  0.0000000  1.0460000  1
    750    761    766    767     1  0.0000000  0.6694400  3
    750    768    755    758     1  0.0000000  1.6038667  3
    751    753    754    756     1  0.0000000  0.6508444  3
    751    753    760    762     1  0.0000000  1.0460000  1
    751    753    760    762     1  0.0000000  0.6694400  3
    751    750    761    764     1  0.0000000  0.6508444  3
    751    750    761    765     1  0.0000000  0.6508444  3
    752    750    751    753     1  0.0000000  0.6508444  3
    752    750    751    771     1  0.0000000  1.0460000  1
    752    750    751    771     1  0.0000000  0.0000000  3
    752    750    751    770     1  0.0000000  0.6508444  3
    752    750    761    766     1  0.0000000  1.0460000  1
    752    750    761    766     1  0.0000000  0.0000000  3
    752    750    761    764     1  0.0000000  0.6508444  3
    752    750    761    765     1  0.0000000  0.6508444  3
    752    750    768    755     1  0.0000000  1.6038667  3
    753    754    755    758     1  0.0000000  0.6508444  3
    753    754    773    763     1  0.0000000  1.2552000  3
    753    751    771    772     1  0.0000000  1.0460000  1
    753    751    771    772     1  0.0000000  0.6694400  3
    754    755    759    769     1  0.0000000  1.0460000  1
    754    755    759    769     1  0.0000000  0.6694400  3
    754    753    760    762     1  0.0000000  1.0460000  1
    754    753    760    762     1  0.0000000  0.6694400  3
    754    753    751    770     1  0.0000000  0.6508444  3
    755    754    773    763     1  0.0000000  1.2552000  3
    755    754    753    757     1  0.0000000  0.6508444  3
    756    754    755    759     1  0.0000000  1.0460000  1
    756    754    755    759     1  0.0000000  0.0000000  3
    756    754    755    768     1  0.0000000  1.0460000  1
    756    754    755    768     1  0.0000000  0.0000000  3
    756    754    755    758     1  0.0000000  0.6508444  3
    756    754    773    763     1  0.0000000  1.2552000  3
    756    754    753    760     1  0.0000000  1.0460000  1
    756    754    753    760     1  0.0000000  0.0000000  3
    756    754    753    757     1  0.0000000  0.6508444  3
    757    753    754    773     1  0.0000000  0.6508444  3
    757    753    760    762     1  0.0000000  0.6973333  3
    757    753    751    771     1  0.0000000  1.0460000  1
    757    753    751    771     1  0.0000000  0.0000000  3
    757    753    751    770     1  0.0000000  0.6508444  3
    758    755    759    769     1  0.0000000  0.6973333  3
    758    755    754    773     1  0.0000000  0.6508444  3
    760    753    751    770     1  0.0000000  1.0460000  1
    760    753    751    770     1  0.0000000  0.0000000  3
    761    750    751    770     1  0.0000000  0.6508444  3
    764    761    766    767     1  0.0000000  0.6973333  3
    764    761    750    768     1  0.0000000  1.0460000  1
    764    761    750    768     1  0.0000000  0.0000000  3
    765    761    766    767     1  0.0000000  0.6973333  3
    765    761    750    768     1  0.0000000  1.0460000  1
    765    761    750    768     1  0.0000000  0.0000000  3
    768    755    759    769     1  0.0000000  0.6973333  3
    768    750    751    770     1  0.0000000  1.0460000  1
    768    750    751    770     1  0.0000000  0.0000000  3
    770    751    771    772     1  0.0000000  0.6973333  3
    774    775    777    781     1  0.0000000  0.6508444  3
    774    775    795    796     1  0.0000000  1.0460000  1
    774    775    795    796     1  0.0000000  0.6694400  3
    774    785    790    791     1  0.0000000  1.0460000  1
    774    785    790    791     1  0.0000000  0.6694400  3
    774    792    779    782     1  0.0000000  1.6038667  3
    775    777    778    780     1  0.0000000  0.6508444  3
    775    777    784    786     1  0.0000000  1.0460000  1
    775    777    784    786     1  0.0000000  0.6694400  3
    775    774    785    788     1  0.0000000  0.6508444  3
    775    774    785    789     1  0.0000000  0.6508444  3
    776    774    775    777     1  0.0000000  0.6508444  3
    776    774    775    795     1  0.0000000  1.0460000  1
    776    774    775    795     1  0.0000000  0.0000000  3
    776    774    775    794     1  0.0000000  0.6508444  3
    776    774    785    790     1  0.0000000  1.0460000  1
    776    774    785    790     1  0.0000000  0.0000000  3
    776    774    785    788     1  0.0000000  0.6508444  3
    776    774    785    789     1  0.0000000  0.6508444  3
    776    774    792    779     1  0.0000000  1.6038667  3
    777    778    779    782     1  0.0000000  0.6508444  3
    777    778    797    787     1  0.0000000  1.2552000  3
    777    775    795    796     1  0.0000000  1.0460000  1
    777    775    795    796     1  0.0000000  0.6694400  3
    778    779    783    793     1  0.0000000  1.0460000  1
    778    779    783    793     1  0.0000000  0.6694400  3
    778    777    784    786     1  0.0000000  1.0460000  1
    778    777    784    786     1  0.0000000  0.6694400  3
    778    777    775    794     1  0.0000000  0.6508444  3
    779    778    797    787     1  0.0000000  1.2552000  3
    779    778    777    781     1  0.0000000  0.6508444  3
    780    778    779    783     1  0.0000000  1.0460000  1
    780    778    779    783     1  0.0000000  0.0000000  3
    780    778    779    792     1  0.0000000  1.0460000  1
    780    778    779    792     1  0.0000000  0.0000000  3
    780    778    779    782     1  0.0000000  0.6508444  3
    780    778    797    787     1  0.0000000  1.2552000  3
    780    778    777    784     1  0.0000000  1.0460000  1
    780    778    777    784     1  0.0000000  0.0000000  3
    780    778    777    781     1  0.0000000  0.6508444  3
    781    777    778    797     1  0.0000000  0.6508444  3
    781    777    784    786     1  0.0000000  0.6973333  3
    781    777    775    795     1  0.0000000  1.0460000  1
    781    777    775    795     1  0.0000000  0.0000000  3
    781    777    775    794     1  0.0000000  0.6508444  3
    782    779    783    793     1  0.0000000  0.6973333  3
    782    779    778    797     1  0.0000000  0.6508444  3
    784    777    775    794     1  0.0000000  1.0460000  1
    784    777    775    794     1  0.0000000  0.0000000  3
    785    774    775    794     1  0.0000000  0.6508444  3
    788    785    790    791     1  0.0000000  0.6973333  3
    788    785    774    792     1  0.0000000  1.0460000  1
    788    785    774    792     1  0.0000000  0.0000000  3
    789    785    790    791     1  0.0000000  0.6973333  3
    789    785    774    792     1  0.0000000  1.0460000  1
    789    785    774    792     1  0.0000000  0.0000000  3
    792    779    783    793     1  0.0000000  0.6973333  3
    792    774    775    794     1  0.0000000  1.0460000  1
    792    774    775    794     1  0.0000000  0.0000000  3
    794    775    795    796     1  0.0000000  0.6973333  3
    799    801    803    805     1  0.0000000  0.6508444  3
    799    801    803    806     1  0.0000000  0.6508444  3
    800    799    801    803     1  0.0000000  0.0000000  2
    800    799    801    802     1  0.0000000  0.0000000  2
    800    799    801    804     1  0.0000000  0.0000000  2
    801    803    807    872     1  0.0000000  0.6508444  3
    802    801    803    807     1  0.0000000  0.6508444  3
    802    801    803    805     1  0.0000000  0.6508444  3
    802    801    803    806     1  0.0000000  0.6508444  3
    803    807    808    817     1  0.0000000  0.6508444  3
    803    807    808    818     1  0.0000000  0.6508444  3
    803    807    809    810     1  0.0000000  0.6508444  3
    803    807    809    812     1  0.0000000  0.6508444  3
    804    801    803    807     1  0.0000000  0.6508444  3
    804    801    803    805     1  0.0000000  0.6508444  3
    804    801    803    806     1  0.0000000  0.6508444  3
    805    803    807    808     1  0.0000000  0.6508444  3
    805    803    807    809     1  0.0000000  0.6508444  3
    805    803    807    872     1  0.0000000  0.6508444  3
    806    803    807    808     1  0.0000000  0.6508444  3
    806    803    807    809     1  0.0000000  0.6508444  3
    806    803    807    872     1  0.0000000  0.6508444  3
    807    808    819    820     1  0.0000000  0.6508444  3
    807    808    819    821     1  0.0000000  0.6508444  3
    807    809    811    813     1  0.0000000  0.6508444  3
    807    809    811    814     1  0.0000000  0.6508444  3
    808    807    809    810     1  0.0000000  0.6508444  3
    808    807    809    812     1  0.0000000  0.6508444  3
    809    807    808    817     1  0.0000000  0.6508444  3
    809    807    808    818     1  0.0000000  0.6508444  3
    810    809    807    872     1  0.0000000  0.6508444  3
    810    809    811    815     1  0.0000000  0.6508444  3
    810    809    811    813     1  0.0000000  0.6508444  3
    810    809    811    814     1  0.0000000  0.6508444  3
    811    809    807    872     1  0.0000000  0.6508444  3
    811    815    847    837     1  180.0000771  6.0668000  2
    811    815    847    837     1  180.0000771  1.4644000  4
    812    809    807    872     1  0.0000000  0.6508444  3
    812    809    811    815     1  0.0000000  0.6508444  3
    812    809    811    813     1  0.0000000  0.6508444  3
    812    809    811    814     1  0.0000000  0.6508444  3
    813    811    815    816     1  0.0000000  3.3472000  1
    813    811    815    816     1  0.0000000  0.0000000  2
    813    811    815    816     1  180.0000771  0.3347200  3
    813    811    815    847     1  180.0000771  0.0000000  2
    814    811    815    816     1  0.0000000  3.3472000  1
    814    811    815    816     1  0.0000000  0.0000000  2
    814    811    815    816     1  180.0000771  0.3347200  3
    814    811    815    847     1  180.0000771  0.0000000  2
    815    847    828    830     1  0.0000000  1.2552000  3
    816    815    847    837     1  180.0000771  6.0668000  2
    816    815    847    837     1  180.0000771  1.4644000  4
    817    808    807    872     1  0.0000000  0.6508444  3
    817    808    819    822     1  0.0000000  0.6508444  3
    817    808    819    820     1  0.0000000  0.6508444  3
    817    808    819    821     1  0.0000000  0.6508444  3
    818    808    807    872     1  0.0000000  0.6508444  3
    818    808    819    822     1  0.0000000  0.6508444  3
    818    808    819    820     1  0.0000000  0.6508444  3
    818    808    819    821     1  0.0000000  0.6508444  3
    819    808    807    872     1  0.0000000  0.6508444  3
    819    822    871    861     1  180.0000771  6.0668000  2
    819    822    871    861     1  180.0000771  1.4644000  4
    820    819    822    823     1  0.0000000  3.3472000  1
    820    819    822    823     1  0.0000000  0.0000000  2
    820    819    822    823     1  180.0000771  0.3347200  3
    820    819    822    871     1  180.0000771  0.0000000  2
    821    819    822    823     1  0.0000000  3.3472000  1
    821    819    822    823     1  0.0000000  0.0000000  2
    821    819    822    823     1  180.0000771  0.3347200  3
    821    819    822    871     1  180.0000771  0.0000000  2
    822    871    852    854     1  0.0000000  1.2552000  3
    823    822    871    861     1  180.0000771  6.0668000  2
    823    822    871    861     1  180.0000771  1.4644000  4
    824    825    827    831     1  0.0000000  0.6508444  3
    824    825    845    846     1  0.0000000  1.0460000  1
    824    825    845    846     1  0.0000000  0.6694400  3
    824    835    840    841     1  0.0000000  1.0460000  1
    824    835    840    841     1  0.0000000  0.6694400  3
    824    842    829    832     1  0.0000000  1.6038667  3
    825    824    835    838     1  0.0000000  0.6508444  3
    825    824    835    839     1  0.0000000  0.6508444  3
    825    827    828    830     1  0.0000000  0.6508444  3
    825    827    834    836     1  0.0000000  1.0460000  1
    825    827    834    836     1  0.0000000  0.6694400  3
    826    824    825    827     1  0.0000000  0.6508444  3
    826    824    825    845     1  0.0000000  1.0460000  1
    826    824    825    845     1  0.0000000  0.0000000  3
    826    824    825    844     1  0.0000000  0.6508444  3
    826    824    835    840     1  0.0000000  1.0460000  1
    826    824    835    840     1  0.0000000  0.0000000  3
    826    824    835    838     1  0.0000000  0.6508444  3
    826    824    835    839     1  0.0000000  0.6508444  3
    826    824    842    829     1  0.0000000  1.6038667  3
    827    825    845    846     1  0.0000000  1.0460000  1
    827    825    845    846     1  0.0000000  0.6694400  3
    827    828    829    832     1  0.0000000  0.6508444  3
    827    828    847    837     1  0.0000000  1.2552000  3
    828    827    825    844     1  0.0000000  0.6508444  3
    828    827    834    836     1  0.0000000  1.0460000  1
    828    827    834    836     1  0.0000000  0.6694400  3
    828    829    833    843     1  0.0000000  1.0460000  1
    828    829    833    843     1  0.0000000  0.6694400  3
    829    828    827    831     1  0.0000000  0.6508444  3
    829    828    847    837     1  0.0000000  1.2552000  3
    830    828    827    834     1  0.0000000  1.0460000  1
    830    828    827    834     1  0.0000000  0.0000000  3
    830    828    827    831     1  0.0000000  0.6508444  3
    830    828    829    833     1  0.0000000  1.0460000  1
    830    828    829    833     1  0.0000000  0.0000000  3
    830    828    829    842     1  0.0000000  1.0460000  1
    830    828    829    842     1  0.0000000  0.0000000  3
    830    828    829    832     1  0.0000000  0.6508444  3
    830    828    847    837     1  0.0000000  1.2552000  3
    831    827    825    845     1  0.0000000  1.0460000  1
    831    827    825    845     1  0.0000000  0.0000000  3
    831    827    825    844     1  0.0000000  0.6508444  3
    831    827    828    847     1  0.0000000  0.6508444  3
    831    827    834    836     1  0.0000000  0.6973333  3
    832    829    828    847     1  0.0000000  0.6508444  3
    832    829    833    843     1  0.0000000  0.6973333  3
    834    827    825    844     1  0.0000000  1.0460000  1
    834    827    825    844     1  0.0000000  0.0000000  3
    835    824    825    844     1  0.0000000  0.6508444  3
    838    835    824    842     1  0.0000000  1.0460000  1
    838    835    824    842     1  0.0000000  0.0000000  3
    838    835    840    841     1  0.0000000  0.6973333  3
    839    835    824    842     1  0.0000000  1.0460000  1
    839    835    824    842     1  0.0000000  0.0000000  3
    839    835    840    841     1  0.0000000  0.6973333  3
    842    824    825    844     1  0.0000000  1.0460000  1
    842    824    825    844     1  0.0000000  0.0000000  3
    842    829    833    843     1  0.0000000  0.6973333  3
    844    825    845    846     1  0.0000000  0.6973333  3
    848    849    851    855     1  0.0000000  0.6508444  3
    848    849    869    870     1  0.0000000  1.0460000  1
    848    849    869    870     1  0.0000000  0.6694400  3
    848    859    864    865     1  0.0000000  1.0460000  1
    848    859    864    865     1  0.0000000  0.6694400  3
    848    866    853    856     1  0.0000000  1.6038667  3
    849    848    859    862     1  0.0000000  0.6508444  3
    849    848    859    863     1  0.0000000  0.6508444  3
    849    851    852    854     1  0.0000000  0.6508444  3
    849    851    858    860     1  0.0000000  1.0460000  1
    849    851    858    860     1  0.0000000  0.6694400  3
    850    848    849    851     1  0.0000000  0.6508444  3
    850    848    849    869     1  0.0000000  1.0460000  1
    850    848    849    869     1  0.0000000  0.0000000  3
    850    848    849    868     1  0.0000000  0.6508444  3
    850    848    859    864     1  0.0000000  1.0460000  1
    850    848    859    864     1  0.0000000  0.0000000  3
    850    848    859    862     1  0.0000000  0.6508444  3
    850    848    859    863     1  0.0000000  0.6508444  3
    850    848    866    853     1  0.0000000  1.6038667  3
    851    849    869    870     1  0.0000000  1.0460000  1
    851    849    869    870     1  0.0000000  0.6694400  3
    851    852    853    856     1  0.0000000  0.6508444  3
    851    852    871    861     1  0.0000000  1.2552000  3
    852    851    849    868     1  0.0000000  0.6508444  3
    852    851    858    860     1  0.0000000  1.0460000  1
    852    851    858    860     1  0.0000000  0.6694400  3
    852    853    857    867     1  0.0000000  1.0460000  1
    852    853    857    867     1  0.0000000  0.6694400  3
    853    852    851    855     1  0.0000000  0.6508444  3
    853    852    871    861     1  0.0000000  1.2552000  3
    854    852    851    858     1  0.0000000  1.0460000  1
    854    852    851    858     1  0.0000000  0.0000000  3
    854    852    851    855     1  0.0000000  0.6508444  3
    854    852    853    857     1  0.0000000  1.0460000  1
    854    852    853    857     1  0.0000000  0.0000000  3
    854    852    853    866     1  0.0000000  1.0460000  1
    854    852    853    866     1  0.0000000  0.0000000  3
    854    852    853    856     1  0.0000000  0.6508444  3
    854    852    871    861     1  0.0000000  1.2552000  3
    855    851    849    869     1  0.0000000  1.0460000  1
    855    851    849    869     1  0.0000000  0.0000000  3
    855    851    849    868     1  0.0000000  0.6508444  3
    855    851    852    871     1  0.0000000  0.6508444  3
    855    851    858    860     1  0.0000000  0.6973333  3
    856    853    852    871     1  0.0000000  0.6508444  3
    856    853    857    867     1  0.0000000  0.6973333  3
    858    851    849    868     1  0.0000000  1.0460000  1
    858    851    849    868     1  0.0000000  0.0000000  3
    859    848    849    868     1  0.0000000  0.6508444  3
    862    859    848    866     1  0.0000000  1.0460000  1
    862    859    848    866     1  0.0000000  0.0000000  3
    862    859    864    865     1  0.0000000  0.6973333  3
    863    859    848    866     1  0.0000000  1.0460000  1
    863    859    848    866     1  0.0000000  0.0000000  3
    863    859    864    865     1  0.0000000  0.6973333  3
    866    848    849    868     1  0.0000000  1.0460000  1
    866    848    849    868     1  0.0000000  0.0000000  3
    866    853    857    867     1  0.0000000  0.6973333  3
    868    849    869    870     1  0.0000000  0.6973333  3
    873    875    877    879     1  0.0000000  0.6508444  3
    873    875    877    880     1  0.0000000  0.6508444  3
    874    873    875    877     1  0.0000000  0.0000000  2
    874    873    875    876     1  0.0000000  0.0000000  2
    874    873    875    878     1  0.0000000  0.0000000  2
    875    877    881    946     1  0.0000000  0.6508444  3
    876    875    877    881     1  0.0000000  0.6508444  3
    876    875    877    879     1  0.0000000  0.6508444  3
    876    875    877    880     1  0.0000000  0.6508444  3
    877    881    882    891     1  0.0000000  0.6508444  3
    877    881    882    892     1  0.0000000  0.6508444  3
    877    881    883    884     1  0.0000000  0.6508444  3
    877    881    883    886     1  0.0000000  0.6508444  3
    878    875    877    881     1  0.0000000  0.6508444  3
    878    875    877    879     1  0.0000000  0.6508444  3
    878    875    877    880     1  0.0000000  0.6508444  3
    879    877    881    882     1  0.0000000  0.6508444  3
    879    877    881    883     1  0.0000000  0.6508444  3
    879    877    881    946     1  0.0000000  0.6508444  3
    880    877    881    882     1  0.0000000  0.6508444  3
    880    877    881    883     1  0.0000000  0.6508444  3
    880    877    881    946     1  0.0000000  0.6508444  3
    881    882    893    894     1  0.0000000  0.6508444  3
    881    882    893    895     1  0.0000000  0.6508444  3
    881    883    885    887     1  0.0000000  0.6508444  3
    881    883    885    888     1  0.0000000  0.6508444  3
    882    881    883    884     1  0.0000000  0.6508444  3
    882    881    883    886     1  0.0000000  0.6508444  3
    883    881    882    891     1  0.0000000  0.6508444  3
    883    881    882    892     1  0.0000000  0.6508444  3
    884    883    885    889     1  0.0000000  0.6508444  3
    884    883    885    887     1  0.0000000  0.6508444  3
    884    883    885    888     1  0.0000000  0.6508444  3
    884    883    881    946     1  0.0000000  0.6508444  3
    885    889    921    911     1  180.0000771  6.0668000  2
    885    889    921    911     1  180.0000771  1.4644000  4
    885    883    881    946     1  0.0000000  0.6508444  3
    886    883    885    889     1  0.0000000  0.6508444  3
    886    883    885    887     1  0.0000000  0.6508444  3
    886    883    885    888     1  0.0000000  0.6508444  3
    886    883    881    946     1  0.0000000  0.6508444  3
    887    885    889    890     1  0.0000000  3.3472000  1
    887    885    889    890     1  0.0000000  0.0000000  2
    887    885    889    890     1  180.0000771  0.3347200  3
    887    885    889    921     1  180.0000771  0.0000000  2
    888    885    889    890     1  0.0000000  3.3472000  1
    888    885    889    890     1  0.0000000  0.0000000  2
    888    885    889    890     1  180.0000771  0.3347200  3
    888    885    889    921     1  180.0000771  0.0000000  2
    889    921    902    904     1  0.0000000  1.2552000  3
    890    889    921    911     1  180.0000771  6.0668000  2
    890    889    921    911     1  180.0000771  1.4644000  4
    891    882    893    896     1  0.0000000  0.6508444  3
    891    882    893    894     1  0.0000000  0.6508444  3
    891    882    893    895     1  0.0000000  0.6508444  3
    891    882    881    946     1  0.0000000  0.6508444  3
    892    882    893    896     1  0.0000000  0.6508444  3
    892    882    893    894     1  0.0000000  0.6508444  3
    892    882    893    895     1  0.0000000  0.6508444  3
    892    882    881    946     1  0.0000000  0.6508444  3
    893    896    945    935     1  180.0000771  6.0668000  2
    893    896    945    935     1  180.0000771  1.4644000  4
    893    882    881    946     1  0.0000000  0.6508444  3
    894    893    896    897     1  0.0000000  3.3472000  1
    894    893    896    897     1  0.0000000  0.0000000  2
    894    893    896    897     1  180.0000771  0.3347200  3
    894    893    896    945     1  180.0000771  0.0000000  2
    895    893    896    897     1  0.0000000  3.3472000  1
    895    893    896    897     1  0.0000000  0.0000000  2
    895    893    896    897     1  180.0000771  0.3347200  3
    895    893    896    945     1  180.0000771  0.0000000  2
    896    945    926    928     1  0.0000000  1.2552000  3
    897    896    945    935     1  180.0000771  6.0668000  2
    897    896    945    935     1  180.0000771  1.4644000  4
    898    899    901    905     1  0.0000000  0.6508444  3
    898    899    919    920     1  0.0000000  1.0460000  1
    898    899    919    920     1  0.0000000  0.6694400  3
    898    909    914    915     1  0.0000000  1.0460000  1
    898    909    914    915     1  0.0000000  0.6694400  3
    898    916    903    906     1  0.0000000  1.6038667  3
    899    901    902    904     1  0.0000000  0.6508444  3
    899    901    908    910     1  0.0000000  1.0460000  1
    899    901    908    910     1  0.0000000  0.6694400  3
    899    898    909    912     1  0.0000000  0.6508444  3
    899    898    909    913     1  0.0000000  0.6508444  3
    900    898    899    901     1  0.0000000  0.6508444  3
    900    898    899    919     1  0.0000000  1.0460000  1
    900    898    899    919     1  0.0000000  0.0000000  3
    900    898    899    918     1  0.0000000  0.6508444  3
    900    898    909    914     1  0.0000000  1.0460000  1
    900    898    909    914     1  0.0000000  0.0000000  3
    900    898    909    912     1  0.0000000  0.6508444  3
    900    898    909    913     1  0.0000000  0.6508444  3
    900    898    916    903     1  0.0000000  1.6038667  3
    901    902    903    906     1  0.0000000  0.6508444  3
    901    902    921    911     1  0.0000000  1.2552000  3
    901    899    919    920     1  0.0000000  1.0460000  1
    901    899    919    920     1  0.0000000  0.6694400  3
    902    903    907    917     1  0.0000000  1.0460000  1
    902    903    907    917     1  0.0000000  0.6694400  3
    902    901    908    910     1  0.0000000  1.0460000  1
    902    901    908    910     1  0.0000000  0.6694400  3
    902    901    899    918     1  0.0000000  0.6508444  3
    903    902    921    911     1  0.0000000  1.2552000  3
    903    902    901    905     1  0.0000000  0.6508444  3
    904    902    903    907     1  0.0000000  1.0460000  1
    904    902    903    907     1  0.0000000  0.0000000  3
    904    902    903    916     1  0.0000000  1.0460000  1
    904    902    903    916     1  0.0000000  0.0000000  3
    904    902    903    906     1  0.0000000  0.6508444  3
    904    902    921    911     1  0.0000000  1.2552000  3
    904    902    901    908     1  0.0000000  1.0460000  1
    904    902    901    908     1  0.0000000  0.0000000  3
    904    902    901    905     1  0.0000000  0.6508444  3
    905    901    902    921     1  0.0000000  0.6508444  3
    905    901    908    910     1  0.0000000  0.6973333  3
    905    901    899    919     1  0.0000000  1.0460000  1
    905    901    899    919     1  0.0000000  0.0000000  3
    905    901    899    918     1  0.0000000  0.6508444  3
    906    903    907    917     1  0.0000000  0.6973333  3
    906    903    902    921     1  0.0000000  0.6508444  3
    908    901    899    918     1  0.0000000  1.0460000  1
    908    901    899    918     1  0.0000000  0.0000000  3
    909    898    899    918     1  0.0000000  0.6508444  3
    912    909    914    915     1  0.0000000  0.6973333  3
    912    909    898    916     1  0.0000000  1.0460000  1
    912    909    898    916     1  0.0000000  0.0000000  3
    913    909    914    915     1  0.0000000  0.6973333  3
    913    909    898    916     1  0.0000000  1.0460000  1
    913    909    898    916     1  0.0000000  0.0000000  3
    916    903    907    917     1  0.0000000  0.6973333  3
    916    898    899    918     1  0.0000000  1.0460000  1
    916    898    899    918     1  0.0000000  0.0000000  3
    918    899    919    920     1  0.0000000  0.6973333  3
    922    923    925    929     1  0.0000000  0.6508444  3
    922    923    943    944     1  0.0000000  1.0460000  1
    922    923    943    944     1  0.0000000  0.6694400  3
    922    933    938    939     1  0.0000000  1.0460000  1
    922    933    938    939     1  0.0000000  0.6694400  3
    922    940    927    930     1  0.0000000  1.6038667  3
    923    925    926    928     1  0.0000000  0.6508444  3
    923    925    932    934     1  0.0000000  1.0460000  1
    923    925    932    934     1  0.0000000  0.6694400  3
    923    922    933    936     1  0.0000000  0.6508444  3
    923    922    933    937     1  0.0000000  0.6508444  3
    924    922    923    925     1  0.0000000  0.6508444  3
    924    922    923    943     1  0.0000000  1.0460000  1
    924    922    923    943     1  0.0000000  0.0000000  3
    924    922    923    942     1  0.0000000  0.6508444  3
    924    922    933    938     1  0.0000000  1.0460000  1
    924    922    933    938     1  0.0000000  0.0000000  3
    924    922    933    936     1  0.0000000  0.6508444  3
    924    922    933    937     1  0.0000000  0.6508444  3
    924    922    940    927     1  0.0000000  1.6038667  3
    925    926    927    930     1  0.0000000  0.6508444  3
    925    926    945    935     1  0.0000000  1.2552000  3
    925    923    943    944     1  0.0000000  1.0460000  1
    925    923    943    944     1  0.0000000  0.6694400  3
    926    927    931    941     1  0.0000000  1.0460000  1
    926    927    931    941     1  0.0000000  0.6694400  3
    926    925    932    934     1  0.0000000  1.0460000  1
    926    925    932    934     1  0.0000000  0.6694400  3
    926    925    923    942     1  0.0000000  0.6508444  3
    927    926    945    935     1  0.0000000  1.2552000  3
    927    926    925    929     1  0.0000000  0.6508444  3
    928    926    927    931     1  0.0000000  1.0460000  1
    928    926    927    931     1  0.0000000  0.0000000  3
    928    926    927    940     1  0.0000000  1.0460000  1
    928    926    927    940     1  0.0000000  0.0000000  3
    928    926    927    930     1  0.0000000  0.6508444  3
    928    926    945    935     1  0.0000000  1.2552000  3
    928    926    925    932     1  0.0000000  1.0460000  1
    928    926    925    932     1  0.0000000  0.0000000  3
    928    926    925    929     1  0.0000000  0.6508444  3
    929    925    926    945     1  0.0000000  0.6508444  3
    929    925    932    934     1  0.0000000  0.6973333  3
    929    925    923    943     1  0.0000000  1.0460000  1
    929    925    923    943     1  0.0000000  0.0000000  3
    929    925    923    942     1  0.0000000  0.6508444  3
    930    927    931    941     1  0.0000000  0.6973333  3
    930    927    926    945     1  0.0000000  0.6508444  3
    932    925    923    942     1  0.0000000  1.0460000  1
    932    925    923    942     1  0.0000000  0.0000000  3
    933    922    923    942     1  0.0000000  0.6508444  3
    936    933    938    939     1  0.0000000  0.6973333  3
    936    933    922    940     1  0.0000000  1.0460000  1
    936    933    922    940     1  0.0000000  0.0000000  3
    937    933    938    939     1  0.0000000  0.6973333  3
    937    933    922    940     1  0.0000000  1.0460000  1
    937    933    922    940     1  0.0000000  0.0000000  3
    940    927    931    941     1  0.0000000  0.6973333  3
    940    922    923    942     1  0.0000000  1.0460000  1
    940    922    923    942     1  0.0000000  0.0000000  3
    942    923    943    944     1  0.0000000  0.6973333  3
    947    949    951    953     1  0.0000000  0.6508444  3
    947    949    951    954     1  0.0000000  0.6508444  3
    948    947    949    951     1  0.0000000  0.0000000  2
    948    947    949    950     1  0.0000000  0.0000000  2
    948    947    949    952     1  0.0000000  0.0000000  2
    949    951    955   1020     1  0.0000000  0.6508444  3
    950    949    951    955     1  0.0000000  0.6508444  3
    950    949    951    953     1  0.0000000  0.6508444  3
    950    949    951    954     1  0.0000000  0.6508444  3
    951    955    956    965     1  0.0000000  0.6508444  3
    951    955    956    966     1  0.0000000  0.6508444  3
    951    955    957    958     1  0.0000000  0.6508444  3
    951    955    957    960     1  0.0000000  0.6508444  3
    952    949    951    955     1  0.0000000  0.6508444  3
    952    949    951    953     1  0.0000000  0.6508444  3
    952    949    951    954     1  0.0000000  0.6508444  3
    953    951    955    956     1  0.0000000  0.6508444  3
    953    951    955    957     1  0.0000000  0.6508444  3
    953    951    955   1020     1  0.0000000  0.6508444  3
    954    951    955    956     1  0.0000000  0.6508444  3
    954    951    955    957     1  0.0000000  0.6508444  3
    954    951    955   1020     1  0.0000000  0.6508444  3
    955    956    967    968     1  0.0000000  0.6508444  3
    955    956    967    969     1  0.0000000  0.6508444  3
    955    957    959    961     1  0.0000000  0.6508444  3
    955    957    959    962     1  0.0000000  0.6508444  3
    956    955    957    958     1  0.0000000  0.6508444  3
    956    955    957    960     1  0.0000000  0.6508444  3
    957    955    956    965     1  0.0000000  0.6508444  3
    957    955    956    966     1  0.0000000  0.6508444  3
    958    957    955   1020     1  0.0000000  0.6508444  3
    958    957    959    963     1  0.0000000  0.6508444  3
    958    957    959    961     1  0.0000000  0.6508444  3
    958    957    959    962     1  0.0000000  0.6508444  3
    959    957    955   1020     1  0.0000000  0.6508444  3
    959    963    995    985     1  180.0000771  6.0668000  2
    959    963    995    985     1  180.0000771  1.4644000  4
    960    957    955   1020     1  0.0000000  0.6508444  3
    960    957    959    963     1  0.0000000  0.6508444  3
    960    957    959    961     1  0.0000000  0.6508444  3
    960    957    959    962     1  0.0000000  0.6508444  3
    961    959    963    964     1  0.0000000  3.3472000  1
    961    959    963    964     1  0.0000000  0.0000000  2
    961    959    963    964     1  180.0000771  0.3347200  3
    961    959    963    995     1  180.0000771  0.0000000  2
    962    959    963    964     1  0.0000000  3.3472000  1
    962    959    963    964     1  0.0000000  0.0000000  2
    962    959    963    964     1  180.0000771  0.3347200  3
    962    959    963    995     1  180.0000771  0.0000000  2
    963    995    976    978     1  0.0000000  1.2552000  3
    964    963    995    985     1  180.0000771  6.0668000  2
    964    963    995    985     1  180.0000771  1.4644000  4
    965    956    955   1020     1  0.0000000  0.6508444  3
    965    956    967    970     1  0.0000000  0.6508444  3
    965    956    967    968     1  0.0000000  0.6508444  3
    965    956    967    969     1  0.0000000  0.6508444  3
    966    956    955   1020     1  0.0000000  0.6508444  3
    966    956    967    970     1  0.0000000  0.6508444  3
    966    956    967    968     1  0.0000000  0.6508444  3
    966    956    967    969     1  0.0000000  0.6508444  3
    967    956    955   1020     1  0.0000000  0.6508444  3
    967    970   1019   1009     1  180.0000771  6.0668000  2
    967    970   1019   1009     1  180.0000771  1.4644000  4
    968    967    970    971     1  0.0000000  3.3472000  1
    968    967    970    971     1  0.0000000  0.0000000  2
    968    967    970    971     1  180.0000771  0.3347200  3
    968    967    970   1019     1  180.0000771  0.0000000  2
    969    967    970    971     1  0.0000000  3.3472000  1
    969    967    970    971     1  0.0000000  0.0000000  2
    969    967    970    971     1  180.0000771  0.3347200  3
    969    967    970   1019     1  180.0000771  0.0000000  2
    970   1019   1000   1002     1  0.0000000  1.2552000  3
    971    970   1019   1009     1  180.0000771  6.0668000  2
    971    970   1019   1009     1  180.0000771  1.4644000  4
    972    973    975    979     1  0.0000000  0.6508444  3
    972    973    993    994     1  0.0000000  1.0460000  1
    972    973    993    994     1  0.0000000  0.6694400  3
    972    983    988    989     1  0.0000000  1.0460000  1
    972    983    988    989     1  0.0000000  0.6694400  3
    972    990    977    980     1  0.0000000  1.6038667  3
    973    972    983    986     1  0.0000000  0.6508444  3
    973    972    983    987     1  0.0000000  0.6508444  3
    973    975    976    978     1  0.0000000  0.6508444  3
    973    975    982    984     1  0.0000000  1.0460000  1
    973    975    982    984     1  0.0000000  0.6694400  3
    974    972    973    975     1  0.0000000  0.6508444  3
    974    972    973    993     1  0.0000000  1.0460000  1
    974    972    973    993     1  0.0000000  0.0000000  3
    974    972    973    992     1  0.0000000  0.6508444  3
    974    972    983    988     1  0.0000000  1.0460000  1
    974    972    983    988     1  0.0000000  0.0000000  3
    974    972    983    986     1  0.0000000  0.6508444  3
    974    972    983    987     1  0.0000000  0.6508444  3
    974    972    990    977     1  0.0000000  1.6038667  3
    975    973    993    994     1  0.0000000  1.0460000  1
    975    973    993    994     1  0.0000000  0.6694400  3
    975    976    977    980     1  0.0000000  0.6508444  3
    975    976    995    985     1  0.0000000  1.2552000  3
    976    975    973    992     1  0.0000000  0.6508444  3
    976    975    982    984     1  0.0000000  1.0460000  1
    976    975    982    984     1  0.0000000  0.6694400  3
    976    977    981    991     1  0.0000000  1.0460000  1
    976    977    981    991     1  0.0000000  0.6694400  3
    977    976    975    979     1  0.0000000  0.6508444  3
    977    976    995    985     1  0.0000000  1.2552000  3
    978    976    975    982     1  0.0000000  1.0460000  1
    978    976    975    982     1  0.0000000  0.0000000  3
    978    976    975    979     1  0.0000000  0.6508444  3
    978    976    977    981     1  0.0000000  1.0460000  1
    978    976    977    981     1  0.0000000  0.0000000  3
    978    976    977    990     1  0.0000000  1.0460000  1
    978    976    977    990     1  0.0000000  0.0000000  3
    978    976    977    980     1  0.0000000  0.6508444  3
    978    976    995    985     1  0.0000000  1.2552000  3
    979    975    973    993     1  0.0000000  1.0460000  1
    979    975    973    993     1  0.0000000  0.0000000  3
    979    975    973    992     1  0.0000000  0.6508444  3
    979    975    976    995     1  0.0000000  0.6508444  3
    979    975    982    984     1  0.0000000  0.6973333  3
    980    977    976    995     1  0.0000000  0.6508444  3
    980    977    981    991     1  0.0000000  0.6973333  3
    982    975    973    992     1  0.0000000  1.0460000  1
    982    975    973    992     1  0.0000000  0.0000000  3
    983    972    973    992     1  0.0000000  0.6508444  3
    986    983    972    990     1  0.0000000  1.0460000  1
    986    983    972    990     1  0.0000000  0.0000000  3
    986    983    988    989     1  0.0000000  0.6973333  3
    987    983    972    990     1  0.0000000  1.0460000  1
    987    983    972    990     1  0.0000000  0.0000000  3
    987    983    988    989     1  0.0000000  0.6973333  3
    990    972    973    992     1  0.0000000  1.0460000  1
    990    972    973    992     1  0.0000000  0.0000000  3
    990    977    981    991     1  0.0000000  0.6973333  3
    992    973    993    994     1  0.0000000  0.6973333  3
    996    997    999   1003     1  0.0000000  0.6508444  3
    996    997   1017   1018     1  0.0000000  1.0460000  1
    996    997   1017   1018     1  0.0000000  0.6694400  3
    996   1007   1012   1013     1  0.0000000  1.0460000  1
    996   1007   1012   1013     1  0.0000000  0.6694400  3
    996   1014   1001   1004     1  0.0000000  1.6038667  3
    997    996   1007   1010     1  0.0000000  0.6508444  3
    997    996   1007   1011     1  0.0000000  0.6508444  3
    997    999   1000   1002     1  0.0000000  0.6508444  3
    997    999   1006   1008     1  0.0000000  1.0460000  1
    997    999   1006   1008     1  0.0000000  0.6694400  3
    998    996    997    999     1  0.0000000  0.6508444  3
    998    996    997   1017     1  0.0000000  1.0460000  1
    998    996    997   1017     1  0.0000000  0.0000000  3
    998    996    997   1016     1  0.0000000  0.6508444  3
    998    996   1007   1012     1  0.0000000  1.0460000  1
    998    996   1007   1012     1  0.0000000  0.0000000  3
    998    996   1007   1010     1  0.0000000  0.6508444  3
    998    996   1007   1011     1  0.0000000  0.6508444  3
    998    996   1014   1001     1  0.0000000  1.6038667  3
    999    997   1017   1018     1  0.0000000  1.0460000  1
    999    997   1017   1018     1  0.0000000  0.6694400  3
    999   1000   1001   1004     1  0.0000000  0.6508444  3
    999   1000   1019   1009     1  0.0000000  1.2552000  3
   1000    999    997   1016     1  0.0000000  0.6508444  3
   1000    999   1006   1008     1  0.0000000  1.0460000  1
   1000    999   1006   1008     1  0.0000000  0.6694400  3
   1000   1001   1005   1015     1  0.0000000  1.0460000  1
   1000   1001   1005   1015     1  0.0000000  0.6694400  3
   1001   1000    999   1003     1  0.0000000  0.6508444  3
   1001   1000   1019   1009     1  0.0000000  1.2552000  3
   1002   1000    999   1006     1  0.0000000  1.0460000  1
   1002   1000    999   1006     1  0.0000000  0.0000000  3
   1002   1000    999   1003     1  0.0000000  0.6508444  3
   1002   1000   1001   1005     1  0.0000000  1.0460000  1
   1002   1000   1001   1005     1  0.0000000  0.0000000  3
   1002   1000   1001   1014     1  0.0000000  1.0460000  1
   1002   1000   1001   1014     1  0.0000000  0.0000000  3
   1002   1000   1001   1004     1  0.0000000  0.6508444  3
   1002   1000   1019   1009     1  0.0000000  1.2552000  3
   1003    999    997   1017     1  0.0000000  1.0460000  1
   1003    999    997   1017     1  0.0000000  0.0000000  3
   1003    999    997   1016     1  0.0000000  0.6508444  3
   1003    999   1000   1019     1  0.0000000  0.6508444  3
   1003    999   1006   1008     1  0.0000000  0.6973333  3
   1004   1001   1000   1019     1  0.0000000  0.6508444  3
   1004   1001   1005   1015     1  0.0000000  0.6973333  3
   1006    999    997   1016     1  0.0000000  1.0460000  1
   1006    999    997   1016     1  0.0000000  0.0000000  3
   1007    996    997   1016     1  0.0000000  0.6508444  3
   1010   1007    996   1014     1  0.0000000  1.0460000  1
   1010   1007    996   1014     1  0.0000000  0.0000000  3
   1010   1007   1012   1013     1  0.0000000  0.6973333  3
   1011   1007    996   1014     1  0.0000000  1.0460000  1
   1011   1007    996   1014     1  0.0000000  0.0000000  3
   1011   1007   1012   1013     1  0.0000000  0.6973333  3
   1014    996    997   1016     1  0.0000000  1.0460000  1
   1014    996    997   1016     1  0.0000000  0.0000000  3
   1014   1001   1005   1015     1  0.0000000  0.6973333  3
   1016    997   1017   1018     1  0.0000000  0.6973333  3
   1021   1023   1025   1027     1  0.0000000  0.6508444  3
   1021   1023   1025   1028     1  0.0000000  0.6508444  3
   1022   1021   1023   1025     1  0.0000000  0.0000000  2
   1022   1021   1023   1024     1  0.0000000  0.0000000  2
   1022   1021   1023   1026     1  0.0000000  0.0000000  2
   1023   1025   1029   1094     1  0.0000000  0.6508444  3
   1024   1023   1025   1029     1  0.0000000  0.6508444  3
   1024   1023   1025   1027     1  0.0000000  0.6508444  3
   1024   1023   1025   1028     1  0.0000000  0.6508444  3
   1025   1029   1030   1039     1  0.0000000  0.6508444  3
   1025   1029   1030   1040     1  0.0000000  0.6508444  3
   1025   1029   1031   1032     1  0.0000000  0.6508444  3
   1025   1029   1031   1034     1  0.0000000  0.6508444  3
   1026   1023   1025   1029     1  0.0000000  0.6508444  3
   1026   1023   1025   1027     1  0.0000000  0.6508444  3
   1026   1023   1025   1028     1  0.0000000  0.6508444  3
   1027   1025   1029   1030     1  0.0000000  0.6508444  3
   1027   1025   1029   1031     1  0.0000000  0.6508444  3
   1027   1025   1029   1094     1  0.0000000  0.6508444  3
   1028   1025   1029   1030     1  0.0000000  0.6508444  3
   1028   1025   1029   1031     1  0.0000000  0.6508444  3
   1028   1025   1029   1094     1  0.0000000  0.6508444  3
   1029   1030   1041   1042     1  0.0000000  0.6508444  3
   1029   1030   1041   1043     1  0.0000000  0.6508444  3
   1029   1031   1033   1035     1  0.0000000  0.6508444  3
   1029   1031   1033   1036     1  0.0000000  0.6508444  3
   1030   1029   1031   1032     1  0.0000000  0.6508444  3
   1030   1029   1031   1034     1  0.0000000  0.6508444  3
   1031   1029   1030   1039     1  0.0000000  0.6508444  3
   1031   1029   1030   1040     1  0.0000000  0.6508444  3
   1032   1031   1033   1037     1  0.0000000  0.6508444  3
   1032   1031   1033   1035     1  0.0000000  0.6508444  3
   1032   1031   1033   1036     1  0.0000000  0.6508444  3
   1032   1031   1029   1094     1  0.0000000  0.6508444  3
   1033   1037   1069   1059     1  180.0000771  6.0668000  2
   1033   1037   1069   1059     1  180.0000771  1.4644000  4
   1033   1031   1029   1094     1  0.0000000  0.6508444  3
   1034   1031   1033   1037     1  0.0000000  0.6508444  3
   1034   1031   1033   1035     1  0.0000000  0.6508444  3
   1034   1031   1033   1036     1  0.0000000  0.6508444  3
   1034   1031   1029   1094     1  0.0000000  0.6508444  3
   1035   1033   1037   1038     1  0.0000000  3.3472000  1
   1035   1033   1037   1038     1  0.0000000  0.0000000  2
   1035   1033   1037   1038     1  180.0000771  0.3347200  3
   1035   1033   1037   1069     1  180.0000771  0.0000000  2
   1036   1033   1037   1038     1  0.0000000  3.3472000  1
   1036   1033   1037   1038     1  0.0000000  0.0000000  2
   1036   1033   1037   1038     1  180.0000771  0.3347200  3
   1036   1033   1037   1069     1  180.0000771  0.0000000  2
   1037   1069   1050   1052     1  0.0000000  1.2552000  3
   1038   1037   1069   1059     1  180.0000771  6.0668000  2
   1038   1037   1069   1059     1  180.0000771  1.4644000  4
   1039   1030   1041   1044     1  0.0000000  0.6508444  3
   1039   1030   1041   1042     1  0.0000000  0.6508444  3
   1039   1030   1041   1043     1  0.0000000  0.6508444  3
   1039   1030   1029   1094     1  0.0000000  0.6508444  3
   1040   1030   1041   1044     1  0.0000000  0.6508444  3
   1040   1030   1041   1042     1  0.0000000  0.6508444  3
   1040   1030   1041   1043     1  0.0000000  0.6508444  3
   1040   1030   1029   1094     1  0.0000000  0.6508444  3
   1041   1044   1093   1083     1  180.0000771  6.0668000  2
   1041   1044   1093   1083     1  180.0000771  1.4644000  4
   1041   1030   1029   1094     1  0.0000000  0.6508444  3
   1042   1041   1044   1045     1  0.0000000  3.3472000  1
   1042   1041   1044   1045     1  0.0000000  0.0000000  2
   1042   1041   1044   1045     1  180.0000771  0.3347200  3
   1042   1041   1044   1093     1  180.0000771  0.0000000  2
   1043   1041   1044   1045     1  0.0000000  3.3472000  1
   1043   1041   1044   1045     1  0.0000000  0.0000000  2
   1043   1041   1044   1045     1  180.0000771  0.3347200  3
   1043   1041   1044   1093     1  180.0000771  0.0000000  2
   1044   1093   1074   1076     1  0.0000000  1.2552000  3
   1045   1044   1093   1083     1  180.0000771  6.0668000  2
   1045   1044   1093   1083     1  180.0000771  1.4644000  4
   1046   1047   1049   1053     1  0.0000000  0.6508444  3
   1046   1047   1067   1068     1  0.0000000  1.0460000  1
   1046   1047   1067   1068     1  0.0000000  0.6694400  3
   1046   1057   1062   1063     1  0.0000000  1.0460000  1
   1046   1057   1062   1063     1  0.0000000  0.6694400  3
   1046   1064   1051   1054     1  0.0000000  1.6038667  3
   1047   1049   1050   1052     1  0.0000000  0.6508444  3
   1047   1049   1056   1058     1  0.0000000  1.0460000  1
   1047   1049   1056   1058     1  0.0000000  0.6694400  3
   1047   1046   1057   1060     1  0.0000000  0.6508444  3
   1047   1046   1057   1061     1  0.0000000  0.6508444  3
   1048   1046   1047   1049     1  0.0000000  0.6508444  3
   1048   1046   1047   1067     1  0.0000000  1.0460000  1
   1048   1046   1047   1067     1  0.0000000  0.0000000  3
   1048   1046   1047   1066     1  0.0000000  0.6508444  3
   1048   1046   1057   1062     1  0.0000000  1.0460000  1
   1048   1046   1057   1062     1  0.0000000  0.0000000  3
   1048   1046   1057   1060     1  0.0000000  0.6508444  3
   1048   1046   1057   1061     1  0.0000000  0.6508444  3
   1048   1046   1064   1051     1  0.0000000  1.6038667  3
   1049   1050   1051   1054     1  0.0000000  0.6508444  3
   1049   1050   1069   1059     1  0.0000000  1.2552000  3
   1049   1047   1067   1068     1  0.0000000  1.0460000  1
   1049   1047   1067   1068     1  0.0000000  0.6694400  3
   1050   1051   1055   1065     1  0.0000000  1.0460000  1
   1050   1051   1055   1065     1  0.0000000  0.6694400  3
   1050   1049   1056   1058     1  0.0000000  1.0460000  1
   1050   1049   1056   1058     1  0.0000000  0.6694400  3
   1050   1049   1047   1066     1  0.0000000  0.6508444  3
   1051   1050   1069   1059     1  0.0000000  1.2552000  3
   1051   1050   1049   1053     1  0.0000000  0.6508444  3
   1052   1050   1051   1055     1  0.0000000  1.0460000  1
   1052   1050   1051   1055     1  0.0000000  0.0000000  3
   1052   1050   1051   1064     1  0.0000000  1.0460000  1
   1052   1050   1051   1064     1  0.0000000  0.0000000  3
   1052   1050   1051   1054     1  0.0000000  0.6508444  3
   1052   1050   1069   1059     1  0.0000000  1.2552000  3
   1052   1050   1049   1056     1  0.0000000  1.0460000  1
   1052   1050   1049   1056     1  0.0000000  0.0000000  3
   1052   1050   1049   1053     1  0.0000000  0.6508444  3
   1053   1049   1050   1069     1  0.0000000  0.6508444  3
   1053   1049   1056   1058     1  0.0000000  0.6973333  3
   1053   1049   1047   1067     1  0.0000000  1.0460000  1
   1053   1049   1047   1067     1  0.0000000  0.0000000  3
   1053   1049   1047   1066     1  0.0000000  0.6508444  3
   1054   1051   1055   1065     1  0.0000000  0.6973333  3
   1054   1051   1050   1069     1  0.0000000  0.6508444  3
   1056   1049   1047   1066     1  0.0000000  1.0460000  1
   1056   1049   1047   1066     1  0.0000000  0.0000000  3
   1057   1046   1047   1066     1  0.0000000  0.6508444  3
   1060   1057   1062   1063     1  0.0000000  0.6973333  3
   1060   1057   1046   1064     1  0.0000000  1.0460000  1
   1060   1057   1046   1064     1  0.0000000  0.0000000  3
   1061   1057   1062   1063     1  0.0000000  0.6973333  3
   1061   1057   1046   1064     1  0.0000000  1.0460000  1
   1061   1057   1046   1064     1  0.0000000  0.0000000  3
   1064   1051   1055   1065     1  0.0000000  0.6973333  3
   1064   1046   1047   1066     1  0.0000000  1.0460000  1
   1064   1046   1047   1066     1  0.0000000  0.0000000  3
   1066   1047   1067   1068     1  0.0000000  0.6973333  3
   1070   1071   1073   1077     1  0.0000000  0.6508444  3
   1070   1071   1091   1092     1  0.0000000  1.0460000  1
   1070   1071   1091   1092     1  0.0000000  0.6694400  3
   1070   1081   1086   1087     1  0.0000000  1.0460000  1
   1070   1081   1086   1087     1  0.0000000  0.6694400  3
   1070   1088   1075   1078     1  0.0000000  1.6038667  3
   1071   1073   1074   1076     1  0.0000000  0.6508444  3
   1071   1073   1080   1082     1  0.0000000  1.0460000  1
   1071   1073   1080   1082     1  0.0000000  0.6694400  3
   1071   1070   1081   1084     1  0.0000000  0.6508444  3
   1071   1070   1081   1085     1  0.0000000  0.6508444  3
   1072   1070   1071   1073     1  0.0000000  0.6508444  3
   1072   1070   1071   1091     1  0.0000000  1.0460000  1
   1072   1070   1071   1091     1  0.0000000  0.0000000  3
   1072   1070   1071   1090     1  0.0000000  0.6508444  3
   1072   1070   1081   1086     1  0.0000000  1.0460000  1
   1072   1070   1081   1086     1  0.0000000  0.0000000  3
   1072   1070   1081   1084     1  0.0000000  0.6508444  3
   1072   1070   1081   1085     1  0.0000000  0.6508444  3
   1072   1070   1088   1075     1  0.0000000  1.6038667  3
   1073   1074   1075   1078     1  0.0000000  0.6508444  3
   1073   1074   1093   1083     1  0.0000000  1.2552000  3
   1073   1071   1091   1092     1  0.0000000  1.0460000  1
   1073   1071   1091   1092     1  0.0000000  0.6694400  3
   1074   1075   1079   1089     1  0.0000000  1.0460000  1
   1074   1075   1079   1089     1  0.0000000  0.6694400  3
   1074   1073   1080   1082     1  0.0000000  1.0460000  1
   1074   1073   1080   1082     1  0.0000000  0.6694400  3
   1074   1073   1071   1090     1  0.0000000  0.6508444  3
   1075   1074   1093   1083     1  0.0000000  1.2552000  3
   1075   1074   1073   1077     1  0.0000000  0.6508444  3
   1076   1074   1075   1079     1  0.0000000  1.0460000  1
   1076   1074   1075   1079     1  0.0000000  0.0000000  3
   1076   1074   1075   1088     1  0.0000000  1.0460000  1
   1076   1074   1075   1088     1  0.0000000  0.0000000  3
   1076   1074   1075   1078     1  0.0000000  0.6508444  3
   1076   1074   1093   1083     1  0.0000000  1.2552000  3
   1076   1074   1073   1080     1  0.0000000  1.0460000  1
   1076   1074   1073   1080     1  0.0000000  0.0000000  3
   1076   1074   1073   1077     1  0.0000000  0.6508444  3
   1077   1073   1074   1093     1  0.0000000  0.6508444  3
   1077   1073   1080   1082     1  0.0000000  0.6973333  3
   1077   1073   1071   1091     1  0.0000000  1.0460000  1
   1077   1073   1071   1091     1  0.0000000  0.0000000  3
   1077   1073   1071   1090     1  0.0000000  0.6508444  3
   1078   1075   1079   1089     1  0.0000000  0.6973333  3
   1078   1075   1074   1093     1  0.0000000  0.6508444  3
   1080   1073   1071   1090     1  0.0000000  1.0460000  1
   1080   1073   1071   1090     1  0.0000000  0.0000000  3
   1081   1070   1071   1090     1  0.0000000  0.6508444  3
   1084   1081   1086   1087     1  0.0000000  0.6973333  3
   1084   1081   1070   1088     1  0.0000000  1.0460000  1
   1084   1081   1070   1088     1  0.0000000  0.0000000  3
   1085   1081   1086   1087     1  0.0000000  0.6973333  3
   1085   1081   1070   1088     1  0.0000000  1.0460000  1
   1085   1081   1070   1088     1  0.0000000  0.0000000  3
   1088   1075   1079   1089     1  0.0000000  0.6973333  3
   1088   1070   1071   1090     1  0.0000000  1.0460000  1
   1088   1070   1071   1090     1  0.0000000  0.0000000  3
   1090   1071   1091   1092     1  0.0000000  0.6973333  3
   1095   1097   1099   1101     1  0.0000000  0.6508444  3
   1095   1097   1099   1102     1  0.0000000  0.6508444  3
   1096   1095   1097   1099     1  0.0000000  0.0000000  2
   1096   1095   1097   1098     1  0.0000000  0.0000000  2
   1096   1095   1097   1100     1  0.0000000  0.0000000  2
   1097   1099   1103   1168     1  0.0000000  0.6508444  3
   1098   1097   1099   1103     1  0.0000000  0.6508444  3
   1098   1097   1099   1101     1  0.0000000  0.6508444  3
   1098   1097   1099   1102     1  0.0000000  0.6508444  3
   1099   1103   1104   1113     1  0.0000000  0.6508444  3
   1099   1103   1104   1114     1  0.0000000  0.6508444  3
   1099   1103   1105   1106     1  0.0000000  0.6508444  3
   1099   1103   1105   1108     1  0.0000000  0.6508444  3
   1100   1097   1099   1103     1  0.0000000  0.6508444  3
   1100   1097   1099   1101     1  0.0000000  0.6508444  3
   1100   1097   1099   1102     1  0.0000000  0.6508444  3
   1101   1099   1103   1104     1  0.0000000  0.6508444  3
   1101   1099   1103   1105     1  0.0000000  0.6508444  3
   1101   1099   1103   1168     1  0.0000000  0.6508444  3
   1102   1099   1103   1104     1  0.0000000  0.6508444  3
   1102   1099   1103   1105     1  0.0000000  0.6508444  3
   1102   1099   1103   1168     1  0.0000000  0.6508444  3
   1103   1104   1115   1116     1  0.0000000  0.6508444  3
   1103   1104   1115   1117     1  0.0000000  0.6508444  3
   1103   1105   1107   1109     1  0.0000000  0.6508444  3
   1103   1105   1107   1110     1  0.0000000  0.6508444  3
   1104   1103   1105   1106     1  0.0000000  0.6508444  3
   1104   1103   1105   1108     1  0.0000000  0.6508444  3
   1105   1103   1104   1113     1  0.0000000  0.6508444  3
   1105   1103   1104   1114     1  0.0000000  0.6508444  3
   1106   1105   1103   1168     1  0.0000000  0.6508444  3
   1106   1105   1107   1111     1  0.0000000  0.6508444  3
   1106   1105   1107   1109     1  0.0000000  0.6508444  3
   1106   1105   1107   1110     1  0.0000000  0.6508444  3
   1107   1105   1103   1168     1  0.0000000  0.6508444  3
   1107   1111   1143   1133     1  180.0000771  6.0668000  2
   1107   1111   1143   1133     1  180.0000771  1.4644000  4
   1108   1105   1103   1168     1  0.0000000  0.6508444  3
   1108   1105   1107   1111     1  0.0000000  0.6508444  3
   1108   1105   1107   1109     1  0.0000000  0.6508444  3
   1108   1105   1107   1110     1  0.0000000  0.6508444  3
   1109   1107   1111   1112     1  0.0000000  3.3472000  1
   1109   1107   1111   1112     1  0.0000000  0.0000000  2
   1109   1107   1111   1112     1  180.0000771  0.3347200  3
   1109   1107   1111   1143     1  180.0000771  0.0000000  2
   1110   1107   1111   1112     1  0.0000000  3.3472000  1
   1110   1107   1111   1112     1  0.0000000  0.0000000  2
   1110   1107   1111   1112     1  180.0000771  0.3347200  3
   1110   1107   1111   1143     1  180.0000771  0.0000000  2
   1111   1143   1124   1126     1  0.0000000  1.2552000  3
   1112   1111   1143   1133     1  180.0000771  6.0668000  2
   1112   1111   1143   1133     1  180.0000771  1.4644000  4
   1113   1104   1103   1168     1  0.0000000  0.6508444  3
   1113   1104   1115   1118     1  0.0000000  0.6508444  3
   1113   1104   1115   1116     1  0.0000000  0.6508444  3
   1113   1104   1115   1117     1  0.0000000  0.6508444  3
   1114   1104   1103   1168     1  0.0000000  0.6508444  3
   1114   1104   1115   1118     1  0.0000000  0.6508444  3
   1114   1104   1115   1116     1  0.0000000  0.6508444  3
   1114   1104   1115   1117     1  0.0000000  0.6508444  3
   1115   1104   1103   1168     1  0.0000000  0.6508444  3
   1115   1118   1167   1157     1  180.0000771  6.0668000  2
   1115   1118   1167   1157     1  180.0000771  1.4644000  4
   1116   1115   1118   1119     1  0.0000000  3.3472000  1
   1116   1115   1118   1119     1  0.0000000  0.0000000  2
   1116   1115   1118   1119     1  180.0000771  0.3347200  3
   1116   1115   1118   1167     1  180.0000771  0.0000000  2
   1117   1115   1118   1119     1  0.0000000  3.3472000  1
   1117   1115   1118   1119     1  0.0000000  0.0000000  2
   1117   1115   1118   1119     1  180.0000771  0.3347200  3
   1117   1115   1118   1167     1  180.0000771  0.0000000  2
   1118   1167   1148   1150     1  0.0000000  1.2552000  3
   1119   1118   1167   1157     1  180.0000771  6.0668000  2
   1119   1118   1167   1157     1  180.0000771  1.4644000  4
   1120   1121   1123   1127     1  0.0000000  0.6508444  3
   1120   1121   1141   1142     1  0.0000000  1.0460000  1
   1120   1121   1141   1142     1  0.0000000  0.6694400  3
   1120   1131   1136   1137     1  0.0000000  1.0460000  1
   1120   1131   1136   1137     1  0.0000000  0.6694400  3
   1120   1138   1125   1128     1  0.0000000  1.6038667  3
   1121   1120   1131   1134     1  0.0000000  0.6508444  3
   1121   1120   1131   1135     1  0.0000000  0.6508444  3
   1121   1123   1124   1126     1  0.0000000  0.6508444  3
   1121   1123   1130   1132     1  0.0000000  1.0460000  1
   1121   1123   1130   1132     1  0.0000000  0.6694400  3
   1122   1120   1121   1123     1  0.0000000  0.6508444  3
   1122   1120   1121   1141     1  0.0000000  1.0460000  1
   1122   1120   1121   1141     1  0.0000000  0.0000000  3
   1122   1120   1121   1140     1  0.0000000  0.6508444  3
   1122   1120   1131   1136     1  0.0000000  1.0460000  1
   1122   1120   1131   1136     1  0.0000000  0.0000000  3
   1122   1120   1131   1134     1  0.0000000  0.6508444  3
   1122   1120   1131   1135     1  0.0000000  0.6508444  3
   1122   1120   1138   1125     1  0.0000000  1.6038667  3
   1123   1121   1141   1142     1  0.0000000  1.0460000  1
   1123   1121   1141   1142     1  0.0000000  0.6694400  3
   1123   1124   1125   1128     1  0.0000000  0.6508444  3
   1123   1124   1143   1133     1  0.0000000  1.2552000  3
   1124   1123   1121   1140     1  0.0000000  0.6508444  3
   1124   1123   1130   1132     1  0.0000000  1.0460000  1
   1124   1123   1130   1132     1  0.0000000  0.6694400  3
   1124   1125   1129   1139     1  0.0000000  1.0460000  1
   1124   1125   1129   1139     1  0.0000000  0.6694400  3
   1125   1124   1123   1127     1  0.0000000  0.6508444  3
   1125   1124   1143   1133     1  0.0000000  1.2552000  3
   1126   1124   1123   1130     1  0.0000000  1.0460000  1
   1126   1124   1123   1130     1  0.0000000  0.0000000  3
   1126   1124   1123   1127     1  0.0000000  0.6508444  3
   1126   1124   1125   1129     1  0.0000000  1.0460000  1
   1126   1124   1125   1129     1  0.0000000  0.0000000  3
   1126   1124   1125   1138     1  0.0000000  1.0460000  1
   1126   1124   1125   1138     1  0.0000000  0.0000000  3
   1126   1124   1125   1128     1  0.0000000  0.6508444  3
   1126   1124   1143   1133     1  0.0000000  1.2552000  3
   1127   1123   1121   1141     1  0.0000000  1.0460000  1
   1127   1123   1121   1141     1  0.0000000  0.0000000  3
   1127   1123   1121   1140     1  0.0000000  0.6508444  3
   1127   1123   1124   1143     1  0.0000000  0.6508444  3
   1127   1123   1130   1132     1  0.0000000  0.6973333  3
   1128   1125   1124   1143     1  0.0000000  0.6508444  3
   1128   1125   1129   1139     1  0.0000000  0.6973333  3
   1130   1123   1121   1140     1  0.0000000  1.0460000  1
   1130   1123   1121   1140     1  0.0000000  0.0000000  3
   1131   1120   1121   1140     1  0.0000000  0.6508444  3
   1134   1131   1120   1138     1  0.0000000  1.0460000  1
   1134   1131   1120   1138     1  0.0000000  0.0000000  3
   1134   1131   1136   1137     1  0.0000000  0.6973333  3
   1135   1131   1120   1138     1  0.0000000  1.0460000  1
   1135   1131   1120   1138     1  0.0000000  0.0000000  3
   1135   1131   1136   1137     1  0.0000000  0.6973333  3
   1138   1120   1121   1140     1  0.0000000  1.0460000  1
   1138   1120   1121   1140     1  0.0000000  0.0000000  3
   1138   1125   1129   1139     1  0.0000000  0.6973333  3
   1140   1121   1141   1142     1  0.0000000  0.6973333  3
   1144   1145   1147   1151     1  0.0000000  0.6508444  3
   1144   1145   1165   1166     1  0.0000000  1.0460000  1
   1144   1145   1165   1166     1  0.0000000  0.6694400  3
   1144   1155   1160   1161     1  0.0000000  1.0460000  1
   1144   1155   1160   1161     1  0.0000000  0.6694400  3
   1144   1162   1149   1152     1  0.0000000  1.6038667  3
   1145   1144   1155   1158     1  0.0000000  0.6508444  3
   1145   1144   1155   1159     1  0.0000000  0.6508444  3
   1145   1147   1148   1150     1  0.0000000  0.6508444  3
   1145   1147   1154   1156     1  0.0000000  1.0460000  1
   1145   1147   1154   1156     1  0.0000000  0.6694400  3
   1146   1144   1145   1147     1  0.0000000  0.6508444  3
   1146   1144   1145   1165     1  0.0000000  1.0460000  1
   1146   1144   1145   1165     1  0.0000000  0.0000000  3
   1146   1144   1145   1164     1  0.0000000  0.6508444  3
   1146   1144   1155   1160     1  0.0000000  1.0460000  1
   1146   1144   1155   1160     1  0.0000000  0.0000000  3
   1146   1144   1155   1158     1  0.0000000  0.6508444  3
   1146   1144   1155   1159     1  0.0000000  0.6508444  3
   1146   1144   1162   1149     1  0.0000000  1.6038667  3
   1147   1145   1165   1166     1  0.0000000  1.0460000  1
   1147   1145   1165   1166     1  0.0000000  0.6694400  3
   1147   1148   1149   1152     1  0.0000000  0.6508444  3
   1147   1148   1167   1157     1  0.0000000  1.2552000  3
   1148   1147   1145   1164     1  0.0000000  0.6508444  3
   1148   1147   1154   1156     1  0.0000000  1.0460000  1
   1148   1147   1154   1156     1  0.0000000  0.6694400  3
   1148   1149   1153   1163     1  0.0000000  1.0460000  1
   1148   1149   1153   1163     1  0.0000000  0.6694400  3
   1149   1148   1147   1151     1  0.0000000  0.6508444  3
   1149   1148   1167   1157     1  0.0000000  1.2552000  3
   1150   1148   1147   1154     1  0.0000000  1.0460000  1
   1150   1148   1147   1154     1  0.0000000  0.0000000  3
   1150   1148   1147   1151     1  0.0000000  0.6508444  3
   1150   1148   1149   1153     1  0.0000000  1.0460000  1
   1150   1148   1149   1153     1  0.0000000  0.0000000  3
   1150   1148   1149   1162     1  0.0000000  1.0460000  1
   1150   1148   1149   1162     1  0.0000000  0.0000000  3
   1150   1148   1149   1152     1  0.0000000  0.6508444  3
   1150   1148   1167   1157     1  0.0000000  1.2552000  3
   1151   1147   1145   1165     1  0.0000000  1.0460000  1
   1151   1147   1145   1165     1  0.0000000  0.0000000  3
   1151   1147   1145   1164     1  0.0000000  0.6508444  3
   1151   1147   1148   1167     1  0.0000000  0.6508444  3
   1151   1147   1154   1156     1  0.0000000  0.6973333  3
   1152   1149   1148   1167     1  0.0000000  0.6508444  3
   1152   1149   1153   1163     1  0.0000000  0.6973333  3
   1154   1147   1145   1164     1  0.0000000  1.0460000  1
   1154   1147   1145   1164     1  0.0000000  0.0000000  3
   1155   1144   1145   1164     1  0.0000000  0.6508444  3
   1158   1155   1144   1162     1  0.0000000  1.0460000  1
   1158   1155   1144   1162     1  0.0000000  0.0000000  3
   1158   1155   1160   1161     1  0.0000000  0.6973333  3
   1159   1155   1144   1162     1  0.0000000  1.0460000  1
   1159   1155   1144   1162     1  0.0000000  0.0000000  3
   1159   1155   1160   1161     1  0.0000000  0.6973333  3
   1162   1144   1145   1164     1  0.0000000  1.0460000  1
   1162   1144   1145   1164     1  0.0000000  0.0000000  3
   1162   1149   1153   1163     1  0.0000000  0.6973333  3
   1164   1145   1165   1166     1  0.0000000  0.6973333  3
   1169   1171   1173   1175     1  0.0000000  0.6508444  3
   1169   1171   1173   1176     1  0.0000000  0.6508444  3
   1170   1169   1171   1173     1  0.0000000  0.0000000  2
   1170   1169   1171   1172     1  0.0000000  0.0000000  2
   1170   1169   1171   1174     1  0.0000000  0.0000000  2
   1171   1173   1177   1242     1  0.0000000  0.6508444  3
   1172   1171   1173   1177     1  0.0000000  0.6508444  3
   1172   1171   1173   1175     1  0.0000000  0.6508444  3
   1172   1171   1173   1176     1  0.0000000  0.6508444  3
   1173   1177   1178   1187     1  0.0000000  0.6508444  3
   1173   1177   1178   1188     1  0.0000000  0.6508444  3
   1173   1177   1179   1180     1  0.0000000  0.6508444  3
   1173   1177   1179   1182     1  0.0000000  0.6508444  3
   1174   1171   1173   1177     1  0.0000000  0.6508444  3
   1174   1171   1173   1175     1  0.0000000  0.6508444  3
   1174   1171   1173   1176     1  0.0000000  0.6508444  3
   1175   1173   1177   1178     1  0.0000000  0.6508444  3
   1175   1173   1177   1179     1  0.0000000  0.6508444  3
   1175   1173   1177   1242     1  0.0000000  0.6508444  3
   1176   1173   1177   1178     1  0.0000000  0.6508444  3
   1176   1173   1177   1179     1  0.0000000  0.6508444  3
   1176   1173   1177   1242     1  0.0000000  0.6508444  3
   1177   1178   1189   1190     1  0.0000000  0.6508444  3
   1177   1178   1189   1191     1  0.0000000  0.6508444  3
   1177   1179   1181   1183     1  0.0000000  0.6508444  3
   1177   1179   1181   1184     1  0.0000000  0.6508444  3
   1178   1177   1179   1180     1  0.0000000  0.6508444  3
   1178   1177   1179   1182     1  0.0000000  0.6508444  3
   1179   1177   1178   1187     1  0.0000000  0.6508444  3
   1179   1177   1178   1188     1  0.0000000  0.6508444  3
   1180   1179   1181   1185     1  0.0000000  0.6508444  3
   1180   1179   1181   1183     1  0.0000000  0.6508444  3
   1180   1179   1181   1184     1  0.0000000  0.6508444  3
   1180   1179   1177   1242     1  0.0000000  0.6508444  3
   1181   1185   1217   1207     1  180.0000771  6.0668000  2
   1181   1185   1217   1207     1  180.0000771  1.4644000  4
   1181   1179   1177   1242     1  0.0000000  0.6508444  3
   1182   1179   1181   1185     1  0.0000000  0.6508444  3
   1182   1179   1181   1183     1  0.0000000  0.6508444  3
   1182   1179   1181   1184     1  0.0000000  0.6508444  3
   1182   1179   1177   1242     1  0.0000000  0.6508444  3
   1183   1181   1185   1186     1  0.0000000  3.3472000  1
   1183   1181   1185   1186     1  0.0000000  0.0000000  2
   1183   1181   1185   1186     1  180.0000771  0.3347200  3
   1183   1181   1185   1217     1  180.0000771  0.0000000  2
   1184   1181   1185   1186     1  0.0000000  3.3472000  1
   1184   1181   1185   1186     1  0.0000000  0.0000000  2
   1184   1181   1185   1186     1  180.0000771  0.3347200  3
   1184   1181   1185   1217     1  180.0000771  0.0000000  2
   1185   1217   1198   1200     1  0.0000000  1.2552000  3
   1186   1185   1217   1207     1  180.0000771  6.0668000  2
   1186   1185   1217   1207     1  180.0000771  1.4644000  4
   1187   1178   1189   1192     1  0.0000000  0.6508444  3
   1187   1178   1189   1190     1  0.0000000  0.6508444  3
   1187   1178   1189   1191     1  0.0000000  0.6508444  3
   1187   1178   1177   1242     1  0.0000000  0.6508444  3
   1188   1178   1189   1192     1  0.0000000  0.6508444  3
   1188   1178   1189   1190     1  0.0000000  0.6508444  3
   1188   1178   1189   1191     1  0.0000000  0.6508444  3
   1188   1178   1177   1242     1  0.0000000  0.6508444  3
   1189   1192   1241   1231     1  180.0000771  6.0668000  2
   1189   1192   1241   1231     1  180.0000771  1.4644000  4
   1189   1178   1177   1242     1  0.0000000  0.6508444  3
   1190   1189   1192   1193     1  0.0000000  3.3472000  1
   1190   1189   1192   1193     1  0.0000000  0.0000000  2
   1190   1189   1192   1193     1  180.0000771  0.3347200  3
   1190   1189   1192   1241     1  180.0000771  0.0000000  2
   1191   1189   1192   1193     1  0.0000000  3.3472000  1
   1191   1189   1192   1193     1  0.0000000  0.0000000  2
   1191   1189   1192   1193     1  180.0000771  0.3347200  3
   1191   1189   1192   1241     1  180.0000771  0.0000000  2
   1192   1241   1222   1224     1  0.0000000  1.2552000  3
   1193   1192   1241   1231     1  180.0000771  6.0668000  2
   1193   1192   1241   1231     1  180.0000771  1.4644000  4
   1194   1195   1197   1201     1  0.0000000  0.6508444  3
   1194   1195   1215   1216     1  0.0000000  1.0460000  1
   1194   1195   1215   1216     1  0.0000000  0.6694400  3
   1194   1205   1210   1211     1  0.0000000  1.0460000  1
   1194   1205   1210   1211     1  0.0000000  0.6694400  3
   1194   1212   1199   1202     1  0.0000000  1.6038667  3
   1195   1197   1198   1200     1  0.0000000  0.6508444  3
   1195   1197   1204   1206     1  0.0000000  1.0460000  1
   1195   1197   1204   1206     1  0.0000000  0.6694400  3
   1195   1194   1205   1208     1  0.0000000  0.6508444  3
   1195   1194   1205   1209     1  0.0000000  0.6508444  3
   1196   1194   1195   1197     1  0.0000000  0.6508444  3
   1196   1194   1195   1215     1  0.0000000  1.0460000  1
   1196   1194   1195   1215     1  0.0000000  0.0000000  3
   1196   1194   1195   1214     1  0.0000000  0.6508444  3
   1196   1194   1205   1210     1  0.0000000  1.0460000  1
   1196   1194   1205   1210     1  0.0000000  0.0000000  3
   1196   1194   1205   1208     1  0.0000000  0.6508444  3
   1196   1194   1205   1209     1  0.0000000  0.6508444  3
   1196   1194   1212   1199     1  0.0000000  1.6038667  3
   1197   1198   1199   1202     1  0.0000000  0.6508444  3
   1197   1198   1217   1207     1  0.0000000  1.2552000  3
   1197   1195   1215   1216     1  0.0000000  1.0460000  1
   1197   1195   1215   1216     1  0.0000000  0.6694400  3
   1198   1199   1203   1213     1  0.0000000  1.0460000  1
   1198   1199   1203   1213     1  0.0000000  0.6694400  3
   1198   1197   1204   1206     1  0.0000000  1.0460000  1
   1198   1197   1204   1206     1  0.0000000  0.6694400  3
   1198   1197   1195   1214     1  0.0000000  0.6508444  3
   1199   1198   1217   1207     1  0.0000000  1.2552000  3
   1199   1198   1197   1201     1  0.0000000  0.6508444  3
   1200   1198   1199   1203     1  0.0000000  1.0460000  1
   1200   1198   1199   1203     1  0.0000000  0.0000000  3
   1200   1198   1199   1212     1  0.0000000  1.0460000  1
   1200   1198   1199   1212     1  0.0000000  0.0000000  3
   1200   1198   1199   1202     1  0.0000000  0.6508444  3
   1200   1198   1217   1207     1  0.0000000  1.2552000  3
   1200   1198   1197   1204     1  0.0000000  1.0460000  1
   1200   1198   1197   1204     1  0.0000000  0.0000000  3
   1200   1198   1197   1201     1  0.0000000  0.6508444  3
   1201   1197   1198   1217     1  0.0000000  0.6508444  3
   1201   1197   1204   1206     1  0.0000000  0.6973333  3
   1201   1197   1195   1215     1  0.0000000  1.0460000  1
   1201   1197   1195   1215     1  0.0000000  0.0000000  3
   1201   1197   1195   1214     1  0.0000000  0.6508444  3
   1202   1199   1203   1213     1  0.0000000  0.6973333  3
   1202   1199   1198   1217     1  0.0000000  0.6508444  3
   1204   1197   1195   1214     1  0.0000000  1.0460000  1
   1204   1197   1195   1214     1  0.0000000  0.0000000  3
   1205   1194   1195   1214     1  0.0000000  0.6508444  3
   1208   1205   1210   1211     1  0.0000000  0.6973333  3
   1208   1205   1194   1212     1  0.0000000  1.0460000  1
   1208   1205   1194   1212     1  0.0000000  0.0000000  3
   1209   1205   1210   1211     1  0.0000000  0.6973333  3
   1209   1205   1194   1212     1  0.0000000  1.0460000  1
   1209   1205   1194   1212     1  0.0000000  0.0000000  3
   1212   1199   1203   1213     1  0.0000000  0.6973333  3
   1212   1194   1195   1214     1  0.0000000  1.0460000  1
   1212   1194   1195   1214     1  0.0000000  0.0000000  3
   1214   1195   1215   1216     1  0.0000000  0.6973333  3
   1218   1219   1221   1225     1  0.0000000  0.6508444  3
   1218   1219   1239   1240     1  0.0000000  1.0460000  1
   1218   1219   1239   1240     1  0.0000000  0.6694400  3
   1218   1229   1234   1235     1  0.0000000  1.0460000  1
   1218   1229   1234   1235     1  0.0000000  0.6694400  3
   1218   1236   1223   1226     1  0.0000000  1.6038667  3
   1219   1221   1222   1224     1  0.0000000  0.6508444  3
   1219   1221   1228   1230     1  0.0000000  1.0460000  1
   1219   1221   1228   1230     1  0.0000000  0.6694400  3
   1219   1218   1229   1232     1  0.0000000  0.6508444  3
   1219   1218   1229   1233     1  0.0000000  0.6508444  3
   1220   1218   1219   1221     1  0.0000000  0.6508444  3
   1220   1218   1219   1239     1  0.0000000  1.0460000  1
   1220   1218   1219   1239     1  0.0000000  0.0000000  3
   1220   1218   1219   1238     1  0.0000000  0.6508444  3
   1220   1218   1229   1234     1  0.0000000  1.0460000  1
   1220   1218   1229   1234     1  0.0000000  0.0000000  3
   1220   1218   1229   1232     1  0.0000000  0.6508444  3
   1220   1218   1229   1233     1  0.0000000  0.6508444  3
   1220   1218   1236   1223     1  0.0000000  1.6038667  3
   1221   1222   1223   1226     1  0.0000000  0.6508444  3
   1221   1222   1241   1231     1  0.0000000  1.2552000  3
   1221   1219   1239   1240     1  0.0000000  1.0460000  1
   1221   1219   1239   1240     1  0.0000000  0.6694400  3
   1222   1223   1227   1237     1  0.0000000  1.0460000  1
   1222   1223   1227   1237     1  0.0000000  0.6694400  3
   1222   1221   1228   1230     1  0.0000000  1.0460000  1
   1222   1221   1228   1230     1  0.0000000  0.6694400  3
   1222   1221   1219   1238     1  0.0000000  0.6508444  3
   1223   1222   1241   1231     1  0.0000000  1.2552000  3
   1223   1222   1221   1225     1  0.0000000  0.6508444  3
   1224   1222   1223   1227     1  0.0000000  1.0460000  1
   1224   1222   1223   1227     1  0.0000000  0.0000000  3
   1224   1222   1223   1236     1  0.0000000  1.0460000  1
   1224   1222   1223   1236     1  0.0000000  0.0000000  3
   1224   1222   1223   1226     1  0.0000000  0.6508444  3
   1224   1222   1241   1231     1  0.0000000  1.2552000  3
   1224   1222   1221   1228     1  0.0000000  1.0460000  1
   1224   1222   1221   1228     1  0.0000000  0.0000000  3
   1224   1222   1221   1225     1  0.0000000  0.6508444  3
   1225   1221   1222   1241     1  0.0000000  0.6508444  3
   1225   1221   1228   1230     1  0.0000000  0.6973333  3
   1225   1221   1219   1239     1  0.0000000  1.0460000  1
   1225   1221   1219   1239     1  0.0000000  0.0000000  3
   1225   1221   1219   1238     1  0.0000000  0.6508444  3
   1226   1223   1227   1237     1  0.0000000  0.6973333  3
   1226   1223   1222   1241     1  0.0000000  0.6508444  3
   1228   1221   1219   1238     1  0.0000000  1.0460000  1
   1228   1221   1219   1238     1  0.0000000  0.0000000  3
   1229   1218   1219   1238     1  0.0000000  0.6508444  3
   1232   1229   1234   1235     1  0.0000000  0.6973333  3
   1232   1229   1218   1236     1  0.0000000  1.0460000  1
   1232   1229   1218   1236     1  0.0000000  0.0000000  3
   1233   1229   1234   1235     1  0.0000000  0.6973333  3
   1233   1229   1218   1236     1  0.0000000  1.0460000  1
   1233   1229   1218   1236     1  0.0000000  0.0000000  3
   1236   1223   1227   1237     1  0.0000000  0.6973333  3
   1236   1218   1219   1238     1  0.0000000  1.0460000  1
   1236   1218   1219   1238     1  0.0000000  0.0000000  3
   1238   1219   1239   1240     1  0.0000000  0.6973333  3
   1243   1245   1247   1249     1  0.0000000  0.6508444  3
   1243   1245   1247   1250     1  0.0000000  0.6508444  3
   1244   1243   1245   1247     1  0.0000000  0.0000000  2
   1244   1243   1245   1246     1  0.0000000  0.0000000  2
   1244   1243   1245   1248     1  0.0000000  0.0000000  2
   1245   1247   1251   1316     1  0.0000000  0.6508444  3
   1246   1245   1247   1251     1  0.0000000  0.6508444  3
   1246   1245   1247   1249     1  0.0000000  0.6508444  3
   1246   1245   1247   1250     1  0.0000000  0.6508444  3
   1247   1251   1252   1261     1  0.0000000  0.6508444  3
   1247   1251   1252   1262     1  0.0000000  0.6508444  3
   1247   1251   1253   1254     1  0.0000000  0.6508444  3
   1247   1251   1253   1256     1  0.0000000  0.6508444  3
   1248   1245   1247   1251     1  0.0000000  0.6508444  3
   1248   1245   1247   1249     1  0.0000000  0.6508444  3
   1248   1245   1247   1250     1  0.0000000  0.6508444  3
   1249   1247   1251   1252     1  0.0000000  0.6508444  3
   1249   1247   1251   1253     1  0.0000000  0.6508444  3
   1249   1247   1251   1316     1  0.0000000  0.6508444  3
   1250   1247   1251   1252     1  0.0000000  0.6508444  3
   1250   1247   1251   1253     1  0.0000000  0.6508444  3
   1250   1247   1251   1316     1  0.0000000  0.6508444  3
   1251   1252   1263   1264     1  0.0000000  0.6508444  3
   1251   1252   1263   1265     1  0.0000000  0.6508444  3
   1251   1253   1255   1257     1  0.0000000  0.6508444  3
   1251   1253   1255   1258     1  0.0000000  0.6508444  3
   1252   1251   1253   1254     1  0.0000000  0.6508444  3
   1252   1251   1253   1256     1  0.0000000  0.6508444  3
   1253   1251   1252   1261     1  0.0000000  0.6508444  3
   1253   1251   1252   1262     1  0.0000000  0.6508444  3
   1254   1253   1251   1316     1  0.0000000  0.6508444  3
   1254   1253   1255   1259     1  0.0000000  0.6508444  3
   1254   1253   1255   1257     1  0.0000000  0.6508444  3
   1254   1253   1255   1258     1  0.0000000  0.6508444  3
   1255   1253   1251   1316     1  0.0000000  0.6508444  3
   1255   1259   1291   1281     1  180.0000771  6.0668000  2
   1255   1259   1291   1281     1  180.0000771  1.4644000  4
   1256   1253   1251   1316     1  0.0000000  0.6508444  3
   1256   1253   1255   1259     1  0.0000000  0.6508444  3
   1256   1253   1255   1257     1  0.0000000  0.6508444  3
   1256   1253   1255   1258     1  0.0000000  0.6508444  3
   1257   1255   1259   1260     1  0.0000000  3.3472000  1
   1257   1255   1259   1260     1  0.0000000  0.0000000  2
   1257   1255   1259   1260     1  180.0000771  0.3347200  3
   1257   1255   1259   1291     1  180.0000771  0.0000000  2
   1258   1255   1259   1260     1  0.0000000  3.3472000  1
   1258   1255   1259   1260     1  0.0000000  0.0000000  2
   1258   1255   1259   1260     1  180.0000771  0.3347200  3
   1258   1255   1259   1291     1  180.0000771  0.0000000  2
   1259   1291   1272   1274     1  0.0000000  1.2552000  3
   1260   1259   1291   1281     1  180.0000771  6.0668000  2
   1260   1259   1291   1281     1  180.0000771  1.4644000  4
   1261   1252   1251   1316     1  0.0000000  0.6508444  3
   1261   1252   1263   1266     1  0.0000000  0.6508444  3
   1261   1252   1263   1264     1  0.0000000  0.6508444  3
   1261   1252   1263   1265     1  0.0000000  0.6508444  3
   1262   1252   1251   1316     1  0.0000000  0.6508444  3
   1262   1252   1263   1266     1  0.0000000  0.6508444  3
   1262   1252   1263   1264     1  0.0000000  0.6508444  3
   1262   1252   1263   1265     1  0.0000000  0.6508444  3
   1263   1252   1251   1316     1  0.0000000  0.6508444  3
   1263   1266   1315   1305     1  180.0000771  6.0668000  2
   1263   1266   1315   1305     1  180.0000771  1.4644000  4
   1264   1263   1266   1267     1  0.0000000  3.3472000  1
   1264   1263   1266   1267     1  0.0000000  0.0000000  2
   1264   1263   1266   1267     1  180.0000771  0.3347200  3
   1264   1263   1266   1315     1  180.0000771  0.0000000  2
   1265   1263   1266   1267     1  0.0000000  3.3472000  1
   1265   1263   1266   1267     1  0.0000000  0.0000000  2
   1265   1263   1266   1267     1  180.0000771  0.3347200  3
   1265   1263   1266   1315     1  180.0000771  0.0000000  2
   1266   1315   1296   1298     1  0.0000000  1.2552000  3
   1267   1266   1315   1305     1  180.0000771  6.0668000  2
   1267   1266   1315   1305     1  180.0000771  1.4644000  4
   1268   1269   1271   1275     1  0.0000000  0.6508444  3
   1268   1269   1289   1290     1  0.0000000  1.0460000  1
   1268   1269   1289   1290     1  0.0000000  0.6694400  3
   1268   1279   1284   1285     1  0.0000000  1.0460000  1
   1268   1279   1284   1285     1  0.0000000  0.6694400  3
   1268   1286   1273   1276     1  0.0000000  1.6038667  3
   1269   1268   1279   1282     1  0.0000000  0.6508444  3
   1269   1268   1279   1283     1  0.0000000  0.6508444  3
   1269   1271   1272   1274     1  0.0000000  0.6508444  3
   1269   1271   1278   1280     1  0.0000000  1.0460000  1
   1269   1271   1278   1280     1  0.0000000  0.6694400  3
   1270   1268   1269   1271     1  0.0000000  0.6508444  3
   1270   1268   1269   1289     1  0.0000000  1.0460000  1
   1270   1268   1269   1289     1  0.0000000  0.0000000  3
   1270   1268   1269   1288     1  0.0000000  0.6508444  3
   1270   1268   1279   1284     1  0.0000000  1.0460000  1
   1270   1268   1279   1284     1  0.0000000  0.0000000  3
   1270   1268   1279   1282     1  0.0000000  0.6508444  3
   1270   1268   1279   1283     1  0.0000000  0.6508444  3
   1270   1268   1286   1273     1  0.0000000  1.6038667  3
   1271   1269   1289   1290     1  0.0000000  1.0460000  1
   1271   1269   1289   1290     1  0.0000000  0.6694400  3
   1271   1272   1273   1276     1  0.0000000  0.6508444  3
   1271   1272   1291   1281     1  0.0000000  1.2552000  3
   1272   1271   1269   1288     1  0.0000000  0.6508444  3
   1272   1271   1278   1280     1  0.0000000  1.0460000  1
   1272   1271   1278   1280     1  0.0000000  0.6694400  3
   1272   1273   1277   1287     1  0.0000000  1.0460000  1
   1272   1273   1277   1287     1  0.0000000  0.6694400  3
   1273   1272   1271   1275     1  0.0000000  0.6508444  3
   1273   1272   1291   1281     1  0.0000000  1.2552000  3
   1274   1272   1271   1278     1  0.0000000  1.0460000  1
   1274   1272   1271   1278     1  0.0000000  0.0000000  3
   1274   1272   1271   1275     1  0.0000000  0.6508444  3
   1274   1272   1273   1277     1  0.0000000  1.0460000  1
   1274   1272   1273   1277     1  0.0000000  0.0000000  3
   1274   1272   1273   1286     1  0.0000000  1.0460000  1
   1274   1272   1273   1286     1  0.0000000  0.0000000  3
   1274   1272   1273   1276     1  0.0000000  0.6508444  3
   1274   1272   1291   1281     1  0.0000000  1.2552000  3
   1275   1271   1269   1289     1  0.0000000  1.0460000  1
   1275   1271   1269   1289     1  0.0000000  0.0000000  3
   1275   1271   1269   1288     1  0.0000000  0.6508444  3
   1275   1271   1272   1291     1  0.0000000  0.6508444  3
   1275   1271   1278   1280     1  0.0000000  0.6973333  3
   1276   1273   1272   1291     1  0.0000000  0.6508444  3
   1276   1273   1277   1287     1  0.0000000  0.6973333  3
   1278   1271   1269   1288     1  0.0000000  1.0460000  1
   1278   1271   1269   1288     1  0.0000000  0.0000000  3
   1279   1268   1269   1288     1  0.0000000  0.6508444  3
   1282   1279   1268   1286     1  0.0000000  1.0460000  1
   1282   1279   1268   1286     1  0.0000000  0.0000000  3
   1282   1279   1284   1285     1  0.0000000  0.6973333  3
   1283   1279   1268   1286     1  0.0000000  1.0460000  1
   1283   1279   1268   1286     1  0.0000000  0.0000000  3
   1283   1279   1284   1285     1  0.0000000  0.6973333  3
   1286   1268   1269   1288     1  0.0000000  1.0460000  1
   1286   1268   1269   1288     1  0.0000000  0.0000000  3
   1286   1273   1277   1287     1  0.0000000  0.6973333  3
   1288   1269   1289   1290     1  0.0000000  0.6973333  3
   1292   1293   1295   1299     1  0.0000000  0.6508444  3
   1292   1293   1313   1314     1  0.0000000  1.0460000  1
   1292   1293   1313   1314     1  0.0000000  0.6694400  3
   1292   1303   1308   1309     1  0.0000000  1.0460000  1
   1292   1303   1308   1309     1  0.0000000  0.6694400  3
   1292   1310   1297   1300     1  0.0000000  1.6038667  3
   1293   1292   1303   1306     1  0.0000000  0.6508444  3
   1293   1292   1303   1307     1  0.0000000  0.6508444  3
   1293   1295   1296   1298     1  0.0000000  0.6508444  3
   1293   1295   1302   1304     1  0.0000000  1.0460000  1
   1293   1295   1302   1304     1  0.0000000  0.6694400  3
   1294   1292   1293   1295     1  0.0000000  0.6508444  3
   1294   1292   1293   1313     1  0.0000000  1.0460000  1
   1294   1292   1293   1313     1  0.0000000  0.0000000  3
   1294   1292   1293   1312     1  0.0000000  0.6508444  3
   1294   1292   1303   1308     1  0.0000000  1.0460000  1
   1294   1292   1303   1308     1  0.0000000  0.0000000  3
   1294   1292   1303   1306     1  0.0000000  0.6508444  3
   1294   1292   1303   1307     1  0.0000000  0.6508444  3
   1294   1292   1310   1297     1  0.0000000  1.6038667  3
   1295   1293   1313   1314     1  0.0000000  1.0460000  1
   1295   1293   1313   1314     1  0.0000000  0.6694400  3
   1295   1296   1297   1300     1  0.0000000  0.6508444  3
   1295   1296   1315   1305     1  0.0000000  1.2552000  3
   1296   1295   1293   1312     1  0.0000000  0.6508444  3
   1296   1295   1302   1304     1  0.0000000  1.0460000  1
   1296   1295   1302   1304     1  0.0000000  0.6694400  3
   1296   1297   1301   1311     1  0.0000000  1.0460000  1
   1296   1297   1301   1311     1  0.0000000  0.6694400  3
   1297   1296   1295   1299     1  0.0000000  0.6508444  3
   1297   1296   1315   1305     1  0.0000000  1.2552000  3
   1298   1296   1295   1302     1  0.0000000  1.0460000  1
   1298   1296   1295   1302     1  0.0000000  0.0000000  3
   1298   1296   1295   1299     1  0.0000000  0.6508444  3
   1298   1296   1297   1301     1  0.0000000  1.0460000  1
   1298   1296   1297   1301     1  0.0000000  0.0000000  3
   1298   1296   1297   1310     1  0.0000000  1.0460000  1
   1298   1296   1297   1310     1  0.0000000  0.0000000  3
   1298   1296   1297   1300     1  0.0000000  0.6508444  3
   1298   1296   1315   1305     1  0.0000000  1.2552000  3
   1299   1295   1293   1313     1  0.0000000  1.0460000  1
   1299   1295   1293   1313     1  0.0000000  0.0000000  3
   1299   1295   1293   1312     1  0.0000000  0.6508444  3
   1299   1295   1296   1315     1  0.0000000  0.6508444  3
   1299   1295   1302   1304     1  0.0000000  0.6973333  3
   1300   1297   1296   1315     1  0.0000000  0.6508444  3
   1300   1297   1301   1311     1  0.0000000  0.6973333  3
   1302   1295   1293   1312     1  0.0000000  1.0460000  1
   1302   1295   1293   1312     1  0.0000000  0.0000000  3
   1303   1292   1293   1312     1  0.0000000  0.6508444  3
   1306   1303   1292   1310     1  0.0000000  1.0460000  1
   1306   1303   1292   1310     1  0.0000000  0.0000000  3
   1306   1303   1308   1309     1  0.0000000  0.6973333  3
   1307   1303   1292   1310     1  0.0000000  1.0460000  1
   1307   1303   1292   1310     1  0.0000000  0.0000000  3
   1307   1303   1308   1309     1  0.0000000  0.6973333  3
   1310   1292   1293   1312     1  0.0000000  1.0460000  1
   1310   1292   1293   1312     1  0.0000000  0.0000000  3
   1310   1297   1301   1311     1  0.0000000  0.6973333  3
   1312   1293   1313   1314     1  0.0000000  0.6973333  3
   1317   1319   1321   1323     1  0.0000000  0.6508444  3
   1317   1319   1321   1324     1  0.0000000  0.6508444  3
   1318   1317   1319   1321     1  0.0000000  0.0000000  2
   1318   1317   1319   1320     1  0.0000000  0.0000000  2
   1318   1317   1319   1322     1  0.0000000  0.0000000  2
   1319   1321   1325   1390     1  0.0000000  0.6508444  3
   1320   1319   1321   1325     1  0.0000000  0.6508444  3
   1320   1319   1321   1323     1  0.0000000  0.6508444  3
   1320   1319   1321   1324     1  0.0000000  0.6508444  3
   1321   1325   1326   1335     1  0.0000000  0.6508444  3
   1321   1325   1326   1336     1  0.0000000  0.6508444  3
   1321   1325   1327   1328     1  0.0000000  0.6508444  3
   1321   1325   1327   1330     1  0.0000000  0.6508444  3
   1322   1319   1321   1325     1  0.0000000  0.6508444  3
   1322   1319   1321   1323     1  0.0000000  0.6508444  3
   1322   1319   1321   1324     1  0.0000000  0.6508444  3
   1323   1321   1325   1326     1  0.0000000  0.6508444  3
   1323   1321   1325   1327     1  0.0000000  0.6508444  3
   1323   1321   1325   1390     1  0.0000000  0.6508444  3
   1324   1321   1325   1326     1  0.0000000  0.6508444  3
   1324   1321   1325   1327     1  0.0000000  0.6508444  3
   1324   1321   1325   1390     1  0.0000000  0.6508444  3
   1325   1326   1337   1338     1  0.0000000  0.6508444  3
   1325   1326   1337   1339     1  0.0000000  0.6508444  3
   1325   1327   1329   1331     1  0.0000000  0.6508444  3
   1325   1327   1329   1332     1  0.0000000  0.6508444  3
   1326   1325   1327   1328     1  0.0000000  0.6508444  3
   1326   1325   1327   1330     1  0.0000000  0.6508444  3
   1327   1325   1326   1335     1  0.0000000  0.6508444  3
   1327   1325   1326   1336     1  0.0000000  0.6508444  3
   1328   1327   1329   1333     1  0.0000000  0.6508444  3
   1328   1327   1329   1331     1  0.0000000  0.6508444  3
   1328   1327   1329   1332     1  0.0000000  0.6508444  3
   1328   1327   1325   1390     1  0.0000000  0.6508444  3
   1329   1333   1365   1355     1  180.0000771  6.0668000  2
   1329   1333   1365   1355     1  180.0000771  1.4644000  4
   1329   1327   1325   1390     1  0.0000000  0.6508444  3
   1330   1327   1329   1333     1  0.0000000  0.6508444  3
   1330   1327   1329   1331     1  0.0000000  0.6508444  3
   1330   1327   1329   1332     1  0.0000000  0.6508444  3
   1330   1327   1325   1390     1  0.0000000  0.6508444  3
   1331   1329   1333   1334     1  0.0000000  3.3472000  1
   1331   1329   1333   1334     1  0.0000000  0.0000000  2
   1331   1329   1333   1334     1  180.0000771  0.3347200  3
   1331   1329   1333   1365     1  180.0000771  0.0000000  2
   1332   1329   1333   1334     1  0.0000000  3.3472000  1
   1332   1329   1333   1334     1  0.0000000  0.0000000  2
   1332   1329   1333   1334     1  180.0000771  0.3347200  3
   1332   1329   1333   1365     1  180.0000771  0.0000000  2
   1333   1365   1346   1348     1  0.0000000  1.2552000  3
   1334   1333   1365   1355     1  180.0000771  6.0668000  2
   1334   1333   1365   1355     1  180.0000771  1.4644000  4
   1335   1326   1337   1340     1  0.0000000  0.6508444  3
   1335   1326   1337   1338     1  0.0000000  0.6508444  3
   1335   1326   1337   1339     1  0.0000000  0.6508444  3
   1335   1326   1325   1390     1  0.0000000  0.6508444  3
   1336   1326   1337   1340     1  0.0000000  0.6508444  3
   1336   1326   1337   1338     1  0.0000000  0.6508444  3
   1336   1326   1337   1339     1  0.0000000  0.6508444  3
   1336   1326   1325   1390     1  0.0000000  0.6508444  3
   1337   1340   1389   1379     1  180.0000771  6.0668000  2
   1337   1340   1389   1379     1  180.0000771  1.4644000  4
   1337   1326   1325   1390     1  0.0000000  0.6508444  3
   1338   1337   1340   1341     1  0.0000000  3.3472000  1
   1338   1337   1340   1341     1  0.0000000  0.0000000  2
   1338   1337   1340   1341     1  180.0000771  0.3347200  3
   1338   1337   1340   1389     1  180.0000771  0.0000000  2
   1339   1337   1340   1341     1  0.0000000  3.3472000  1
   1339   1337   1340   1341     1  0.0000000  0.0000000  2
   1339   1337   1340   1341     1  180.0000771  0.3347200  3
   1339   1337   1340   1389     1  180.0000771  0.0000000  2
   1340   1389   1370   1372     1  0.0000000  1.2552000  3
   1341   1340   1389   1379     1  180.0000771  6.0668000  2
   1341   1340   1389   1379     1  180.0000771  1.4644000  4
   1342   1343   1345   1349     1  0.0000000  0.6508444  3
   1342   1343   1363   1364     1  0.0000000  1.0460000  1
   1342   1343   1363   1364     1  0.0000000  0.6694400  3
   1342   1353   1358   1359     1  0.0000000  1.0460000  1
   1342   1353   1358   1359     1  0.0000000  0.6694400  3
   1342   1360   1347   1350     1  0.0000000  1.6038667  3
   1343   1345   1346   1348     1  0.0000000  0.6508444  3
   1343   1345   1352   1354     1  0.0000000  1.0460000  1
   1343   1345   1352   1354     1  0.0000000  0.6694400  3
   1343   1342   1353   1356     1  0.0000000  0.6508444  3
   1343   1342   1353   1357     1  0.0000000  0.6508444  3
   1344   1342   1343   1345     1  0.0000000  0.6508444  3
   1344   1342   1343   1363     1  0.0000000  1.0460000  1
   1344   1342   1343   1363     1  0.0000000  0.0000000  3
   1344   1342   1343   1362     1  0.0000000  0.6508444  3
   1344   1342   1353   1358     1  0.0000000  1.0460000  1
   1344   1342   1353   1358     1  0.0000000  0.0000000  3
   1344   1342   1353   1356     1  0.0000000  0.6508444  3
   1344   1342   1353   1357     1  0.0000000  0.6508444  3
   1344   1342   1360   1347     1  0.0000000  1.6038667  3
   1345   1346   1347   1350     1  0.0000000  0.6508444  3
   1345   1346   1365   1355     1  0.0000000  1.2552000  3
   1345   1343   1363   1364     1  0.0000000  1.0460000  1
   1345   1343   1363   1364     1  0.0000000  0.6694400  3
   1346   1347   1351   1361     1  0.0000000  1.0460000  1
   1346   1347   1351   1361     1  0.0000000  0.6694400  3
   1346   1345   1352   1354     1  0.0000000  1.0460000  1
   1346   1345   1352   1354     1  0.0000000  0.6694400  3
   1346   1345   1343   1362     1  0.0000000  0.6508444  3
   1347   1346   1365   1355     1  0.0000000  1.2552000  3
   1347   1346   1345   1349     1  0.0000000  0.6508444  3
   1348   1346   1347   1351     1  0.0000000  1.0460000  1
   1348   1346   1347   1351     1  0.0000000  0.0000000  3
   1348   1346   1347   1360     1  0.0000000  1.0460000  1
   1348   1346   1347   1360     1  0.0000000  0.0000000  3
   1348   1346   1347   1350     1  0.0000000  0.6508444  3
   1348   1346   1365   1355     1  0.0000000  1.2552000  3
   1348   1346   1345   1352     1  0.0000000  1.0460000  1
   1348   1346   1345   1352     1  0.0000000  0.0000000  3
   1348   1346   1345   1349     1  0.0000000  0.6508444  3
   1349   1345   1346   1365     1  0.0000000  0.6508444  3
   1349   1345   1352   1354     1  0.0000000  0.6973333  3
   1349   1345   1343   1363     1  0.0000000  1.0460000  1
   1349   1345   1343   1363     1  0.0000000  0.0000000  3
   1349   1345   1343   1362     1  0.0000000  0.6508444  3
   1350   1347   1351   1361     1  0.0000000  0.6973333  3
   1350   1347   1346   1365     1  0.0000000  0.6508444  3
   1352   1345   1343   1362     1  0.0000000  1.0460000  1
   1352   1345   1343   1362     1  0.0000000  0.0000000  3
   1353   1342   1343   1362     1  0.0000000  0.6508444  3
   1356   1353   1358   1359     1  0.0000000  0.6973333  3
   1356   1353   1342   1360     1  0.0000000  1.0460000  1
   1356   1353   1342   1360     1  0.0000000  0.0000000  3
   1357   1353   1358   1359     1  0.0000000  0.6973333  3
   1357   1353   1342   1360     1  0.0000000  1.0460000  1
   1357   1353   1342   1360     1  0.0000000  0.0000000  3
   1360   1347   1351   1361     1  0.0000000  0.6973333  3
   1360   1342   1343   1362     1  0.0000000  1.0460000  1
   1360   1342   1343   1362     1  0.0000000  0.0000000  3
   1362   1343   1363   1364     1  0.0000000  0.6973333  3
   1366   1367   1369   1373     1  0.0000000  0.6508444  3
   1366   1367   1387   1388     1  0.0000000  1.0460000  1
   1366   1367   1387   1388     1  0.0000000  0.6694400  3
   1366   1377   1382   1383     1  0.0000000  1.0460000  1
   1366   1377   1382   1383     1  0.0000000  0.6694400  3
   1366   1384   1371   1374     1  0.0000000  1.6038667  3
   1367   1369   1370   1372     1  0.0000000  0.6508444  3
   1367   1369   1376   1378     1  0.0000000  1.0460000  1
   1367   1369   1376   1378     1  0.0000000  0.6694400  3
   1367   1366   1377   1380     1  0.0000000  0.6508444  3
   1367   1366   1377   1381     1  0.0000000  0.6508444  3
   1368   1366   1367   1369     1  0.0000000  0.6508444  3
   1368   1366   1367   1387     1  0.0000000  1.0460000  1
   1368   1366   1367   1387     1  0.0000000  0.0000000  3
   1368   1366   1367   1386     1  0.0000000  0.6508444  3
   1368   1366   1377   1382     1  0.0000000  1.0460000  1
   1368   1366   1377   1382     1  0.0000000  0.0000000  3
   1368   1366   1377   1380     1  0.0000000  0.6508444  3
   1368   1366   1377   1381     1  0.0000000  0.6508444  3
   1368   1366   1384   1371     1  0.0000000  1.6038667  3
   1369   1370   1371   1374     1  0.0000000  0.6508444  3
   1369   1370   1389   1379     1  0.0000000  1.2552000  3
   1369   1367   1387   1388     1  0.0000000  1.0460000  1
   1369   1367   1387   1388     1  0.0000000  0.6694400  3
   1370   1371   1375   1385     1  0.0000000  1.0460000  1
   1370   1371   1375   1385     1  0.0000000  0.6694400  3
   1370   1369   1376   1378     1  0.0000000  1.0460000  1
   1370   1369   1376   1378     1  0.0000000  0.6694400  3
   1370   1369   1367   1386     1  0.0000000  0.6508444  3
   1371   1370   1389   1379     1  0.0000000  1.2552000  3
   1371   1370   1369   1373     1  0.0000000  0.6508444  3
   1372   1370   1371   1375     1  0.0000000  1.0460000  1
   1372   1370   1371   1375     1  0.0000000  0.0000000  3
   1372   1370   1371   1384     1  0.0000000  1.0460000  1
   1372   1370   1371   1384     1  0.0000000  0.0000000  3
   1372   1370   1371   1374     1  0.0000000  0.6508444  3
   1372   1370   1389   1379     1  0.0000000  1.2552000  3
   1372   1370   1369   1376     1  0.0000000  1.0460000  1
   1372   1370   1369   1376     1  0.0000000  0.0000000  3
   1372   1370   1369   1373     1  0.0000000  0.6508444  3
   1373   1369   1370   1389     1  0.0000000  0.6508444  3
   1373   1369   1376   1378     1  0.0000000  0.6973333  3
   1373   1369   1367   1387     1  0.0000000  1.0460000  1
   1373   1369   1367   1387     1  0.0000000  0.0000000  3
   1373   1369   1367   1386     1  0.0000000  0.6508444  3
   1374   1371   1375   1385     1  0.0000000  0.6973333  3
   1374   1371   1370   1389     1  0.0000000  0.6508444  3
   1376   1369   1367   1386     1  0.0000000  1.0460000  1
   1376   1369   1367   1386     1  0.0000000  0.0000000  3
   1377   1366   1367   1386     1  0.0000000  0.6508444  3
   1380   1377   1382   1383     1  0.0000000  0.6973333  3
   1380   1377   1366   1384     1  0.0000000  1.0460000  1
   1380   1377   1366   1384     1  0.0000000  0.0000000  3
   1381   1377   1382   1383     1  0.0000000  0.6973333  3
   1381   1377   1366   1384     1  0.0000000  1.0460000  1
   1381   1377   1366   1384     1  0.0000000  0.0000000  3
   1384   1371   1375   1385     1  0.0000000  0.6973333  3
   1384   1366   1367   1386     1  0.0000000  1.0460000  1
   1384   1366   1367   1386     1  0.0000000  0.0000000  3
   1386   1367   1387   1388     1  0.0000000  0.6973333  3
   1391   1393   1395   1397     1  0.0000000  0.6508444  3
   1391   1393   1395   1398     1  0.0000000  0.6508444  3
   1392   1391   1393   1395     1  0.0000000  0.0000000  2
   1392   1391   1393   1394     1  0.0000000  0.0000000  2
   1392   1391   1393   1396     1  0.0000000  0.0000000  2
   1393   1395   1399   1464     1  0.0000000  0.6508444  3
   1394   1393   1395   1399     1  0.0000000  0.6508444  3
   1394   1393   1395   1397     1  0.0000000  0.6508444  3
   1394   1393   1395   1398     1  0.0000000  0.6508444  3
   1395   1399   1400   1409     1  0.0000000  0.6508444  3
   1395   1399   1400   1410     1  0.0000000  0.6508444  3
   1395   1399   1401   1402     1  0.0000000  0.6508444  3
   1395   1399   1401   1404     1  0.0000000  0.6508444  3
   1396   1393   1395   1399     1  0.0000000  0.6508444  3
   1396   1393   1395   1397     1  0.0000000  0.6508444  3
   1396   1393   1395   1398     1  0.0000000  0.6508444  3
   1397   1395   1399   1400     1  0.0000000  0.6508444  3
   1397   1395   1399   1401     1  0.0000000  0.6508444  3
   1397   1395   1399   1464     1  0.0000000  0.6508444  3
   1398   1395   1399   1400     1  0.0000000  0.6508444  3
   1398   1395   1399   1401     1  0.0000000  0.6508444  3
   1398   1395   1399   1464     1  0.0000000  0.6508444  3
   1399   1400   1411   1412     1  0.0000000  0.6508444  3
   1399   1400   1411   1413     1  0.0000000  0.6508444  3
   1399   1401   1403   1405     1  0.0000000  0.6508444  3
   1399   1401   1403   1406     1  0.0000000  0.6508444  3
   1400   1399   1401   1402     1  0.0000000  0.6508444  3
   1400   1399   1401   1404     1  0.0000000  0.6508444  3
   1401   1399   1400   1409     1  0.0000000  0.6508444  3
   1401   1399   1400   1410     1  0.0000000  0.6508444  3
   1402   1401   1399   1464     1  0.0000000  0.6508444  3
   1402   1401   1403   1407     1  0.0000000  0.6508444  3
   1402   1401   1403   1405     1  0.0000000  0.6508444  3
   1402   1401   1403   1406     1  0.0000000  0.6508444  3
   1403   1401   1399   1464     1  0.0000000  0.6508444  3
   1403   1407   1439   1429     1  180.0000771  6.0668000  2
   1403   1407   1439   1429     1  180.0000771  1.4644000  4
   1404   1401   1399   1464     1  0.0000000  0.6508444  3
   1404   1401   1403   1407     1  0.0000000  0.6508444  3
   1404   1401   1403   1405     1  0.0000000  0.6508444  3
   1404   1401   1403   1406     1  0.0000000  0.6508444  3
   1405   1403   1407   1408     1  0.0000000  3.3472000  1
   1405   1403   1407   1408     1  0.0000000  0.0000000  2
   1405   1403   1407   1408     1  180.0000771  0.3347200  3
   1405   1403   1407   1439     1  180.0000771  0.0000000  2
   1406   1403   1407   1408     1  0.0000000  3.3472000  1
   1406   1403   1407   1408     1  0.0000000  0.0000000  2
   1406   1403   1407   1408     1  180.0000771  0.3347200  3
   1406   1403   1407   1439     1  180.0000771  0.0000000  2
   1407   1439   1420   1422     1  0.0000000  1.2552000  3
   1408   1407   1439   1429     1  180.0000771  6.0668000  2
   1408   1407   1439   1429     1  180.0000771  1.4644000  4
   1409   1400   1399   1464     1  0.0000000  0.6508444  3
   1409   1400   1411   1414     1  0.0000000  0.6508444  3
   1409   1400   1411   1412     1  0.0000000  0.6508444  3
   1409   1400   1411   1413     1  0.0000000  0.6508444  3
   1410   1400   1399   1464     1  0.0000000  0.6508444  3
   1410   1400   1411   1414     1  0.0000000  0.6508444  3
   1410   1400   1411   1412     1  0.0000000  0.6508444  3
   1410   1400   1411   1413     1  0.0000000  0.6508444  3
   1411   1400   1399   1464     1  0.0000000  0.6508444  3
   1411   1414   1463   1453     1  180.0000771  6.0668000  2
   1411   1414   1463   1453     1  180.0000771  1.4644000  4
   1412   1411   1414   1415     1  0.0000000  3.3472000  1
   1412   1411   1414   1415     1  0.0000000  0.0000000  2
   1412   1411   1414   1415     1  180.0000771  0.3347200  3
   1412   1411   1414   1463     1  180.0000771  0.0000000  2
   1413   1411   1414   1415     1  0.0000000  3.3472000  1
   1413   1411   1414   1415     1  0.0000000  0.0000000  2
   1413   1411   1414   1415     1  180.0000771  0.3347200  3
   1413   1411   1414   1463     1  180.0000771  0.0000000  2
   1414   1463   1444   1446     1  0.0000000  1.2552000  3
   1415   1414   1463   1453     1  180.0000771  6.0668000  2
   1415   1414   1463   1453     1  180.0000771  1.4644000  4
   1416   1417   1419   1423     1  0.0000000  0.6508444  3
   1416   1417   1437   1438     1  0.0000000  1.0460000  1
   1416   1417   1437   1438     1  0.0000000  0.6694400  3
   1416   1427   1432   1433     1  0.0000000  1.0460000  1
   1416   1427   1432   1433     1  0.0000000  0.6694400  3
   1416   1434   1421   1424     1  0.0000000  1.6038667  3
   1417   1416   1427   1430     1  0.0000000  0.6508444  3
   1417   1416   1427   1431     1  0.0000000  0.6508444  3
   1417   1419   1420   1422     1  0.0000000  0.6508444  3
   1417   1419   1426   1428     1  0.0000000  1.0460000  1
   1417   1419   1426   1428     1  0.0000000  0.6694400  3
   1418   1416   1417   1419     1  0.0000000  0.6508444  3
   1418   1416   1417   1437     1  0.0000000  1.0460000  1
   1418   1416   1417   1437     1  0.0000000  0.0000000  3
   1418   1416   1417   1436     1  0.0000000  0.6508444  3
   1418   1416   1427   1432     1  0.0000000  1.0460000  1
   1418   1416   1427   1432     1  0.0000000  0.0000000  3
   1418   1416   1427   1430     1  0.0000000  0.6508444  3
   1418   1416   1427   1431     1  0.0000000  0.6508444  3
   1418   1416   1434   1421     1  0.0000000  1.6038667  3
   1419   1417   1437   1438     1  0.0000000  1.0460000  1
   1419   1417   1437   1438     1  0.0000000  0.6694400  3
   1419   1420   1421   1424     1  0.0000000  0.6508444  3
   1419   1420   1439   1429     1  0.0000000  1.2552000  3
   1420   1419   1417   1436     1  0.0000000  0.6508444  3
   1420   1419   1426   1428     1  0.0000000  1.0460000  1
   1420   1419   1426   1428     1  0.0000000  0.6694400  3
   1420   1421   1425   1435     1  0.0000000  1.0460000  1
   1420   1421   1425   1435     1  0.0000000  0.6694400  3
   1421   1420   1419   1423     1  0.0000000  0.6508444  3
   1421   1420   1439   1429     1  0.0000000  1.2552000  3
   1422   1420   1419   1426     1  0.0000000  1.0460000  1
   1422   1420   1419   1426     1  0.0000000  0.0000000  3
   1422   1420   1419   1423     1  0.0000000  0.6508444  3
   1422   1420   1421   1425     1  0.0000000  1.0460000  1
   1422   1420   1421   1425     1  0.0000000  0.0000000  3
   1422   1420   1421   1434     1  0.0000000  1.0460000  1
   1422   1420   1421   1434     1  0.0000000  0.0000000  3
   1422   1420   1421   1424     1  0.0000000  0.6508444  3
   1422   1420   1439   1429     1  0.0000000  1.2552000  3
   1423   1419   1417   1437     1  0.0000000  1.0460000  1
   1423   1419   1417   1437     1  0.0000000  0.0000000  3
   1423   1419   1417   1436     1  0.0000000  0.6508444  3
   1423   1419   1420   1439     1  0.0000000  0.6508444  3
   1423   1419   1426   1428     1  0.0000000  0.6973333  3
   1424   1421   1420   1439     1  0.0000000  0.6508444  3
   1424   1421   1425   1435     1  0.0000000  0.6973333  3
   1426   1419   1417   1436     1  0.0000000  1.0460000  1
   1426   1419   1417   1436     1  0.0000000  0.0000000  3
   1427   1416   1417   1436     1  0.0000000  0.6508444  3
   1430   1427   1416   1434     1  0.0000000  1.0460000  1
   1430   1427   1416   1434     1  0.0000000  0.0000000  3
   1430   1427   1432   1433     1  0.0000000  0.6973333  3
   1431   1427   1416   1434     1  0.0000000  1.0460000  1
   1431   1427   1416   1434     1  0.0000000  0.0000000  3
   1431   1427   1432   1433     1  0.0000000  0.6973333  3
   1434   1416   1417   1436     1  0.0000000  1.0460000  1
   1434   1416   1417   1436     1  0.0000000  0.0000000  3
   1434   1421   1425   1435     1  0.0000000  0.6973333  3
   1436   1417   1437   1438     1  0.0000000  0.6973333  3
   1440   1441   1443   1447     1  0.0000000  0.6508444  3
   1440   1441   1461   1462     1  0.0000000  1.0460000  1
   1440   1441   1461   1462     1  0.0000000  0.6694400  3
   1440   1451   1456   1457     1  0.0000000  1.0460000  1
   1440   1451   1456   1457     1  0.0000000  0.6694400  3
   1440   1458   1445   1448     1  0.0000000  1.6038667  3
   1441   1440   1451   1454     1  0.0000000  0.6508444  3
   1441   1440   1451   1455     1  0.0000000  0.6508444  3
   1441   1443   1444   1446     1  0.0000000  0.6508444  3
   1441   1443   1450   1452     1  0.0000000  1.0460000  1
   1441   1443   1450   1452     1  0.0000000  0.6694400  3
   1442   1440   1441   1443     1  0.0000000  0.6508444  3
   1442   1440   1441   1461     1  0.0000000  1.0460000  1
   1442   1440   1441   1461     1  0.0000000  0.0000000  3
   1442   1440   1441   1460     1  0.0000000  0.6508444  3
   1442   1440   1451   1456     1  0.0000000  1.0460000  1
   1442   1440   1451   1456     1  0.0000000  0.0000000  3
   1442   1440   1451   1454     1  0.0000000  0.6508444  3
   1442   1440   1451   1455     1  0.0000000  0.6508444  3
   1442   1440   1458   1445     1  0.0000000  1.6038667  3
   1443   1441   1461   1462     1  0.0000000  1.0460000  1
   1443   1441   1461   1462     1  0.0000000  0.6694400  3
   1443   1444   1445   1448     1  0.0000000  0.6508444  3
   1443   1444   1463   1453     1  0.0000000  1.2552000  3
   1444   1443   1441   1460     1  0.0000000  0.6508444  3
   1444   1443   1450   1452     1  0.0000000  1.0460000  1
   1444   1443   1450   1452     1  0.0000000  0.6694400  3
   1444   1445   1449   1459     1  0.0000000  1.0460000  1
   1444   1445   1449   1459     1  0.0000000  0.6694400  3
   1445   1444   1443   1447     1  0.0000000  0.6508444  3
   1445   1444   1463   1453     1  0.0000000  1.2552000  3
   1446   1444   1443   1450     1  0.0000000  1.0460000  1
   1446   1444   1443   1450     1  0.0000000  0.0000000  3
   1446   1444   1443   1447     1  0.0000000  0.6508444  3
   1446   1444   1445   1449     1  0.0000000  1.0460000  1
   1446   1444   1445   1449     1  0.0000000  0.0000000  3
   1446   1444   1445   1458     1  0.0000000  1.0460000  1
   1446   1444   1445   1458     1  0.0000000  0.0000000  3
   1446   1444   1445   1448     1  0.0000000  0.6508444  3
   1446   1444   1463   1453     1  0.0000000  1.2552000  3
   1447   1443   1441   1461     1  0.0000000  1.0460000  1
   1447   1443   1441   1461     1  0.0000000  0.0000000  3
   1447   1443   1441   1460     1  0.0000000  0.6508444  3
   1447   1443   1444   1463     1  0.0000000  0.6508444  3
   1447   1443   1450   1452     1  0.0000000  0.6973333  3
   1448   1445   1444   1463     1  0.0000000  0.6508444  3
   1448   1445   1449   1459     1  0.0000000  0.6973333  3
   1450   1443   1441   1460     1  0.0000000  1.0460000  1
   1450   1443   1441   1460     1  0.0000000  0.0000000  3
   1451   1440   1441   1460     1  0.0000000  0.6508444  3
   1454   1451   1440   1458     1  0.0000000  1.0460000  1
   1454   1451   1440   1458     1  0.0000000  0.0000000  3
   1454   1451   1456   1457     1  0.0000000  0.6973333  3
   1455   1451   1440   1458     1  0.0000000  1.0460000  1
   1455   1451   1440   1458     1  0.0000000  0.0000000  3
   1455   1451   1456   1457     1  0.0000000  0.6973333  3
   1458   1440   1441   1460     1  0.0000000  1.0460000  1
   1458   1440   1441   1460     1  0.0000000  0.0000000  3
   1458   1445   1449   1459     1  0.0000000  0.6973333  3
   1460   1441   1461   1462     1  0.0000000  0.6973333  3
   1465   1467   1469   1471     1  0.0000000  0.6508444  3
   1465   1467   1469   1472     1  0.0000000  0.6508444  3
   1466   1465   1467   1469     1  0.0000000  0.0000000  2
   1466   1465   1467   1468     1  0.0000000  0.0000000  2
   1466   1465   1467   1470     1  0.0000000  0.0000000  2
   1467   1469   1473   1538     1  0.0000000  0.6508444  3
   1468   1467   1469   1473     1  0.0000000  0.6508444  3
   1468   1467   1469   1471     1  0.0000000  0.6508444  3
   1468   1467   1469   1472     1  0.0000000  0.6508444  3
   1469   1473   1474   1483     1  0.0000000  0.6508444  3
   1469   1473   1474   1484     1  0.0000000  0.6508444  3
   1469   1473   1475   1476     1  0.0000000  0.6508444  3
   1469   1473   1475   1478     1  0.0000000  0.6508444  3
   1470   1467   1469   1473     1  0.0000000  0.6508444  3
   1470   1467   1469   1471     1  0.0000000  0.6508444  3
   1470   1467   1469   1472     1  0.0000000  0.6508444  3
   1471   1469   1473   1474     1  0.0000000  0.6508444  3
   1471   1469   1473   1475     1  0.0000000  0.6508444  3
   1471   1469   1473   1538     1  0.0000000  0.6508444  3
   1472   1469   1473   1474     1  0.0000000  0.6508444  3
   1472   1469   1473   1475     1  0.0000000  0.6508444  3
   1472   1469   1473   1538     1  0.0000000  0.6508444  3
   1473   1474   1485   1486     1  0.0000000  0.6508444  3
   1473   1474   1485   1487     1  0.0000000  0.6508444  3
   1473   1475   1477   1479     1  0.0000000  0.6508444  3
   1473   1475   1477   1480     1  0.0000000  0.6508444  3
   1474   1473   1475   1476     1  0.0000000  0.6508444  3
   1474   1473   1475   1478     1  0.0000000  0.6508444  3
   1475   1473   1474   1483     1  0.0000000  0.6508444  3
   1475   1473   1474   1484     1  0.0000000  0.6508444  3
   1476   1475   1477   1481     1  0.0000000  0.6508444  3
   1476   1475   1477   1479     1  0.0000000  0.6508444  3
   1476   1475   1477   1480     1  0.0000000  0.6508444  3
   1476   1475   1473   1538     1  0.0000000  0.6508444  3
   1477   1481   1513   1503     1  180.0000771  6.0668000  2
   1477   1481   1513   1503     1  180.0000771  1.4644000  4
   1477   1475   1473   1538     1  0.0000000  0.6508444  3
   1478   1475   1477   1481     1  0.0000000  0.6508444  3
   1478   1475   1477   1479     1  0.0000000  0.6508444  3
   1478   1475   1477   1480     1  0.0000000  0.6508444  3
   1478   1475   1473   1538     1  0.0000000  0.6508444  3
   1479   1477   1481   1482     1  0.0000000  3.3472000  1
   1479   1477   1481   1482     1  0.0000000  0.0000000  2
   1479   1477   1481   1482     1  180.0000771  0.3347200  3
   1479   1477   1481   1513     1  180.0000771  0.0000000  2
   1480   1477   1481   1482     1  0.0000000  3.3472000  1
   1480   1477   1481   1482     1  0.0000000  0.0000000  2
   1480   1477   1481   1482     1  180.0000771  0.3347200  3
   1480   1477   1481   1513     1  180.0000771  0.0000000  2
   1481   1513   1494   1496     1  0.0000000  1.2552000  3
   1482   1481   1513   1503     1  180.0000771  6.0668000  2
   1482   1481   1513   1503     1  180.0000771  1.4644000  4
   1483   1474   1485   1488     1  0.0000000  0.6508444  3
   1483   1474   1485   1486     1  0.0000000  0.6508444  3
   1483   1474   1485   1487     1  0.0000000  0.6508444  3
   1483   1474   1473   1538     1  0.0000000  0.6508444  3
   1484   1474   1485   1488     1  0.0000000  0.6508444  3
   1484   1474   1485   1486     1  0.0000000  0.6508444  3
   1484   1474   1485   1487     1  0.0000000  0.6508444  3
   1484   1474   1473   1538     1  0.0000000  0.6508444  3
   1485   1488   1537   1527     1  180.0000771  6.0668000  2
   1485   1488   1537   1527     1  180.0000771  1.4644000  4
   1485   1474   1473   1538     1  0.0000000  0.6508444  3
   1486   1485   1488   1489     1  0.0000000  3.3472000  1
   1486   1485   1488   1489     1  0.0000000  0.0000000  2
   1486   1485   1488   1489     1  180.0000771  0.3347200  3
   1486   1485   1488   1537     1  180.0000771  0.0000000  2
   1487   1485   1488   1489     1  0.0000000  3.3472000  1
   1487   1485   1488   1489     1  0.0000000  0.0000000  2
   1487   1485   1488   1489     1  180.0000771  0.3347200  3
   1487   1485   1488   1537     1  180.0000771  0.0000000  2
   1488   1537   1518   1520     1  0.0000000  1.2552000  3
   1489   1488   1537   1527     1  180.0000771  6.0668000  2
   1489   1488   1537   1527     1  180.0000771  1.4644000  4
   1490   1491   1493   1497     1  0.0000000  0.6508444  3
   1490   1491   1511   1512     1  0.0000000  1.0460000  1
   1490   1491   1511   1512     1  0.0000000  0.6694400  3
   1490   1501   1506   1507     1  0.0000000  1.0460000  1
   1490   1501   1506   1507     1  0.0000000  0.6694400  3
   1490   1508   1495   1498     1  0.0000000  1.6038667  3
   1491   1493   1494   1496     1  0.0000000  0.6508444  3
   1491   1493   1500   1502     1  0.0000000  1.0460000  1
   1491   1493   1500   1502     1  0.0000000  0.6694400  3
   1491   1490   1501   1504     1  0.0000000  0.6508444  3
   1491   1490   1501   1505     1  0.0000000  0.6508444  3
   1492   1490   1491   1493     1  0.0000000  0.6508444  3
   1492   1490   1491   1511     1  0.0000000  1.0460000  1
   1492   1490   1491   1511     1  0.0000000  0.0000000  3
   1492   1490   1491   1510     1  0.0000000  0.6508444  3
   1492   1490   1501   1506     1  0.0000000  1.0460000  1
   1492   1490   1501   1506     1  0.0000000  0.0000000  3
   1492   1490   1501   1504     1  0.0000000  0.6508444  3
   1492   1490   1501   1505     1  0.0000000  0.6508444  3
   1492   1490   1508   1495     1  0.0000000  1.6038667  3
   1493   1494   1495   1498     1  0.0000000  0.6508444  3
   1493   1494   1513   1503     1  0.0000000  1.2552000  3
   1493   1491   1511   1512     1  0.0000000  1.0460000  1
   1493   1491   1511   1512     1  0.0000000  0.6694400  3
   1494   1495   1499   1509     1  0.0000000  1.0460000  1
   1494   1495   1499   1509     1  0.0000000  0.6694400  3
   1494   1493   1500   1502     1  0.0000000  1.0460000  1
   1494   1493   1500   1502     1  0.0000000  0.6694400  3
   1494   1493   1491   1510     1  0.0000000  0.6508444  3
   1495   1494   1513   1503     1  0.0000000  1.2552000  3
   1495   1494   1493   1497     1  0.0000000  0.6508444  3
   1496   1494   1495   1499     1  0.0000000  1.0460000  1
   1496   1494   1495   1499     1  0.0000000  0.0000000  3
   1496   1494   1495   1508     1  0.0000000  1.0460000  1
   1496   1494   1495   1508     1  0.0000000  0.0000000  3
   1496   1494   1495   1498     1  0.0000000  0.6508444  3
   1496   1494   1513   1503     1  0.0000000  1.2552000  3
   1496   1494   1493   1500     1  0.0000000  1.0460000  1
   1496   1494   1493   1500     1  0.0000000  0.0000000  3
   1496   1494   1493   1497     1  0.0000000  0.6508444  3
   1497   1493   1494   1513     1  0.0000000  0.6508444  3
   1497   1493   1500   1502     1  0.0000000  0.6973333  3
   1497   1493   1491   1511     1  0.0000000  1.0460000  1
   1497   1493   1491   1511     1  0.0000000  0.0000000  3
   1497   1493   1491   1510     1  0.0000000  0.6508444  3
   1498   1495   1499   1509     1  0.0000000  0.6973333  3
   1498   1495   1494   1513     1  0.0000000  0.6508444  3
   1500   1493   1491   1510     1  0.0000000  1.0460000  1
   1500   1493   1491   1510     1  0.0000000  0.0000000  3
   1501   1490   1491   1510     1  0.0000000  0.6508444  3
   1504   1501   1506   1507     1  0.0000000  0.6973333  3
   1504   1501   1490   1508     1  0.0000000  1.0460000  1
   1504   1501   1490   1508     1  0.0000000  0.0000000  3
   1505   1501   1506   1507     1  0.0000000  0.6973333  3
   1505   1501   1490   1508     1  0.0000000  1.0460000  1
   1505   1501   1490   1508     1  0.0000000  0.0000000  3
   1508   1495   1499   1509     1  0.0000000  0.6973333  3
   1508   1490   1491   1510     1  0.0000000  1.0460000  1
   1508   1490   1491   1510     1  0.0000000  0.0000000  3
   1510   1491   1511   1512     1  0.0000000  0.6973333  3
   1514   1515   1517   1521     1  0.0000000  0.6508444  3
   1514   1515   1535   1536     1  0.0000000  1.0460000  1
   1514   1515   1535   1536     1  0.0000000  0.6694400  3
   1514   1525   1530   1531     1  0.0000000  1.0460000  1
   1514   1525   1530   1531     1  0.0000000  0.6694400  3
   1514   1532   1519   1522     1  0.0000000  1.6038667  3
   1515   1517   1518   1520     1  0.0000000  0.6508444  3
   1515   1517   1524   1526     1  0.0000000  1.0460000  1
   1515   1517   1524   1526     1  0.0000000  0.6694400  3
   1515   1514   1525   1528     1  0.0000000  0.6508444  3
   1515   1514   1525   1529     1  0.0000000  0.6508444  3
   1516   1514   1515   1517     1  0.0000000  0.6508444  3
   1516   1514   1515   1535     1  0.0000000  1.0460000  1
   1516   1514   1515   1535     1  0.0000000  0.0000000  3
   1516   1514   1515   1534     1  0.0000000  0.6508444  3
   1516   1514   1525   1530     1  0.0000000  1.0460000  1
   1516   1514   1525   1530     1  0.0000000  0.0000000  3
   1516   1514   1525   1528     1  0.0000000  0.6508444  3
   1516   1514   1525   1529     1  0.0000000  0.6508444  3
   1516   1514   1532   1519     1  0.0000000  1.6038667  3
   1517   1518   1519   1522     1  0.0000000  0.6508444  3
   1517   1518   1537   1527     1  0.0000000  1.2552000  3
   1517   1515   1535   1536     1  0.0000000  1.0460000  1
   1517   1515   1535   1536     1  0.0000000  0.6694400  3
   1518   1519   1523   1533     1  0.0000000  1.0460000  1
   1518   1519   1523   1533     1  0.0000000  0.6694400  3
   1518   1517   1524   1526     1  0.0000000  1.0460000  1
   1518   1517   1524   1526     1  0.0000000  0.6694400  3
   1518   1517   1515   1534     1  0.0000000  0.6508444  3
   1519   1518   1537   1527     1  0.0000000  1.2552000  3
   1519   1518   1517   1521     1  0.0000000  0.6508444  3
   1520   1518   1519   1523     1  0.0000000  1.0460000  1
   1520   1518   1519   1523     1  0.0000000  0.0000000  3
   1520   1518   1519   1532     1  0.0000000  1.0460000  1
   1520   1518   1519   1532     1  0.0000000  0.0000000  3
   1520   1518   1519   1522     1  0.0000000  0.6508444  3
   1520   1518   1537   1527     1  0.0000000  1.2552000  3
   1520   1518   1517   1524     1  0.0000000  1.0460000  1
   1520   1518   1517   1524     1  0.0000000  0.0000000  3
   1520   1518   1517   1521     1  0.0000000  0.6508444  3
   1521   1517   1518   1537     1  0.0000000  0.6508444  3
   1521   1517   1524   1526     1  0.0000000  0.6973333  3
   1521   1517   1515   1535     1  0.0000000  1.0460000  1
   1521   1517   1515   1535     1  0.0000000  0.0000000  3
   1521   1517   1515   1534     1  0.0000000  0.6508444  3
   1522   1519   1523   1533     1  0.0000000  0.6973333  3
   1522   1519   1518   1537     1  0.0000000  0.6508444  3
   1524   1517   1515   1534     1  0.0000000  1.0460000  1
   1524   1517   1515   1534     1  0.0000000  0.0000000  3
   1525   1514   1515   1534     1  0.0000000  0.6508444  3
   1528   1525   1530   1531     1  0.0000000  0.6973333  3
   1528   1525   1514   1532     1  0.0000000  1.0460000  1
   1528   1525   1514   1532     1  0.0000000  0.0000000  3
   1529   1525   1530   1531     1  0.0000000  0.6973333  3
   1529   1525   1514   1532     1  0.0000000  1.0460000  1
   1529   1525   1514   1532     1  0.0000000  0.0000000  3
   1532   1519   1523   1533     1  0.0000000  0.6973333  3
   1532   1514   1515   1534     1  0.0000000  1.0460000  1
   1532   1514   1515   1534     1  0.0000000  0.0000000  3
   1534   1515   1535   1536     1  0.0000000  0.6973333  3
     10     51     52     67     4  180.0000771  4.6024000  2
     12     77     78     93     4  180.0000771  4.6024000  2
     14    103    104    119     4  180.0000771  4.6024000  2
     16    129    130    145     4  180.0000771  4.6024000  2
     47    155    156    171     4  180.0000771  4.6024000  2
     49    181    182    197     4  180.0000771  4.6024000  2
     73    207    208    223     4  180.0000771  4.6024000  2
     75    233    234    249     4  180.0000771  4.6024000  2
     99    259    260    275     4  180.0000771  4.6024000  2
    101    285    286    301     4  180.0000771  4.6024000  2
    125    311    312    327     4  180.0000771  4.6024000  2
    127    337    338    353     4  180.0000771  4.6024000  2
    151    357    355    356     4  180.0000771  4.6024000  2
    153    431    429    430     4  180.0000771  4.6024000  2
    177    505    503    504     4  180.0000771  4.6024000  2
    179    579    577    578     4  180.0000771  4.6024000  2
    203    653    651    652     4  180.0000771  4.6024000  2
    205    727    725    726     4  180.0000771  4.6024000  2
    229    801    799    800     4  180.0000771  4.6024000  2
    231    875    873    874     4  180.0000771  4.6024000  2
    255    949    947    948     4  180.0000771  4.6024000  2
    257   1023   1021   1022     4  180.0000771  4.6024000  2
    281   1097   1095   1096     4  180.0000771  4.6024000  2
    283   1171   1169   1170     4  180.0000771  4.6024000  2
    307   1245   1243   1244     4  180.0000771  4.6024000  2
    309   1319   1317   1318     4  180.0000771  4.6024000  2
    333   1393   1391   1392     4  180.0000771  4.6024000  2
    335   1467   1465   1466     4  180.0000771  4.6024000  2

;[ system ]
;; Name
;Generic title
;
;[ molecules ]
;; Compound       #mols
;system1              1
