;
;   File g1.5_pamam.itp  was generated
;   By user: sairam (1000)
;   On host: sairam
;   At date: Thu. August  4 10:12:44 2023
;
;   This is a standalone topology file
;
;   Created by:
;   ParmEd:       amb2gro_top_gro.py, VERSION 3.4.1
;   Executable:   amb2gro_top_gro.py
;   Library dir:  /usr/local/gromacs/share/gromacs/top
;   Command line:
;     ./amb2gro_top_gro.py -p g1.5_pamam.prmtop -c g1.5_pamam.inpcrd -t g1.5_pamam.itp -g g1.5_pamam.gro -b g1.5_pamam.pdb
;

;[ defaults ]
;; nbfunc        comb-rule       gen-pairs       fudgeLJ fudgeQQ
;1               2               yes             0.5          0.83333333  
;
;[ atomtypes ]
;; name    at.num    mass    charge ptype  sigma      epsilon
;c3             6  12.010000  0.00000000  A     0.33996695      0.4577296
;h1             1   1.008000  0.00000000  A      0.2471353      0.0656888
;n3             7  14.010000  0.00000000  A     0.32499985        0.71128
;hc             1   1.008000  0.00000000  A     0.26495328      0.0656888
;c              6  12.010000  0.00000000  A     0.33996695       0.359824
;o              8  16.000000  0.00000000  A     0.29599219        0.87864
;n              7  14.010000  0.00000000  A     0.32499985        0.71128
;hn             1   1.008000  0.00000000  A     0.10690785      0.0656888


[ moleculetype ]
; Name            nrexcl
g1.5_pamam          3

[ atoms ]
;   nr       type  resnr residue  atom   cgnr    charge       mass  typeB    chargeB      massB
; residue    1 aaa rtp aaa q -0.0
    1         c3      1    aaa     C1      1 0.02890000  12.010000   ; qtot 0.028900
    2         h1      1    aaa     H1      2 0.08460000   1.008000   ; qtot 0.113500
    3         h1      1    aaa     H2      3 0.08460000   1.008000   ; qtot 0.198100
    4         c3      1    aaa     C2      4 0.02890000  12.010000   ; qtot 0.227000
    5         h1      1    aaa     H3      5 0.08460000   1.008000   ; qtot 0.311600
    6         h1      1    aaa     H4      6 0.08460000   1.008000   ; qtot 0.396200
    7         n3      1    aaa     N1      7 -0.65770000  14.010000   ; qtot -0.261500
    8         n3      1    aaa     N2      8 -0.65770000  14.010000   ; qtot -0.919200
    9         c3      1    aaa     C3      9 0.36940000  12.010000   ; qtot -0.549800
   10         h1      1    aaa     H5     10 0.00650000   1.008000   ; qtot -0.543300
   11         h1      1    aaa     H6     11 0.00650000   1.008000   ; qtot -0.536800
   12         c3      1    aaa     C4     12 0.36940000  12.010000   ; qtot -0.167400
   13         h1      1    aaa     H7     13 0.00650000   1.008000   ; qtot -0.160900
   14         h1      1    aaa     H8     14 0.00650000   1.008000   ; qtot -0.154400
   15         c3      1    aaa     C5     15 0.36940000  12.010000   ; qtot 0.215000
   16         h1      1    aaa     H9     16 0.00650000   1.008000   ; qtot 0.221500
   17         h1      1    aaa    H10     17 0.00650000   1.008000   ; qtot 0.228000
   18         c3      1    aaa     C6     18 0.36940000  12.010000   ; qtot 0.597400
   19         h1      1    aaa    H11     19 0.00650000   1.008000   ; qtot 0.603900
   20         h1      1    aaa    H12     20 0.00650000   1.008000   ; qtot 0.610400
   21         c3      1    aaa     C7     21 -0.54350000  12.010000   ; qtot 0.066900
   22         hc      1    aaa    H13     22 0.15890000   1.008000   ; qtot 0.225800
   23         hc      1    aaa    H14     23 0.15890000   1.008000   ; qtot 0.384700
   24         c3      1    aaa     C8     24 -0.54350000  12.010000   ; qtot -0.158800
   25         hc      1    aaa    H15     25 0.15890000   1.008000   ; qtot 0.000100
   26         hc      1    aaa    H16     26 0.15890000   1.008000   ; qtot 0.159000
   27         c3      1    aaa     C9     27 -0.54350000  12.010000   ; qtot -0.384500
   28         hc      1    aaa    H17     28 0.15890000   1.008000   ; qtot -0.225600
   29         hc      1    aaa    H18     29 0.15890000   1.008000   ; qtot -0.066700
   30         c3      1    aaa    C10     30 -0.54350000  12.010000   ; qtot -0.610200
   31         hc      1    aaa    H19     31 0.15890000   1.008000   ; qtot -0.451300
   32         hc      1    aaa    H20     32 0.15890000   1.008000   ; qtot -0.292400
   33          c      1    aaa    C11     33 0.67800000  12.010000   ; qtot 0.385600
   34          c      1    aaa    C12     34 0.67800000  12.010000   ; qtot 1.063600
   35          c      1    aaa    C13     35 0.67800000  12.010000   ; qtot 1.741600
   36          c      1    aaa    C14     36 0.67800000  12.010000   ; qtot 2.419600
   37          o      1    aaa     O1     37 -0.60490000  16.000000   ; qtot 1.814700
   38          o      1    aaa     O2     38 -0.60490000  16.000000   ; qtot 1.209800
   39          o      1    aaa     O3     39 -0.60490000  16.000000   ; qtot 0.604900
   40          o      1    aaa     O4     40 -0.60490000  16.000000   ; qtot -0.000000
; residue    2 bbb rtp bbb q -0.0
   41         c3      2    bbb     C1     41 0.44180000  12.010000   ; qtot 0.441800
   42         h1      2    bbb     H1     42 -0.03530000   1.008000   ; qtot 0.406500
   43         h1      2    bbb     H2     43 -0.03530000   1.008000   ; qtot 0.371200
   44         c3      2    bbb     C2     44 -0.28250000  12.010000   ; qtot 0.088700
   45         h1      2    bbb     H3     45 0.15710000   1.008000   ; qtot 0.245800
   46         h1      2    bbb     H4     46 0.15710000   1.008000   ; qtot 0.402900
   47         n3      2    bbb     N1     47 -0.74090000  14.010000   ; qtot -0.338000
   48         c3      2    bbb     C3     48 0.51680000  12.010000   ; qtot 0.178800
   49         h1      2    bbb     H5     49 -0.05230000   1.008000   ; qtot 0.126500
   50         h1      2    bbb     H6     50 -0.05230000   1.008000   ; qtot 0.074200
   51         c3      2    bbb     C4     51 0.51680000  12.010000   ; qtot 0.591000
   52         h1      2    bbb     H7     52 -0.05230000   1.008000   ; qtot 0.538700
   53         h1      2    bbb     H8     53 -0.05230000   1.008000   ; qtot 0.486400
   54         c3      2    bbb     C5     54 -0.60390000  12.010000   ; qtot -0.117500
   55         hc      2    bbb     H9     55 0.16730000   1.008000   ; qtot 0.049800
   56         hc      2    bbb    H10     56 0.16730000   1.008000   ; qtot 0.217100
   57         c3      2    bbb     C6     57 -0.60390000  12.010000   ; qtot -0.386800
   58         hc      2    bbb    H11     58 0.16730000   1.008000   ; qtot -0.219500
   59         hc      2    bbb    H12     59 0.16730000   1.008000   ; qtot -0.052200
   60          c      2    bbb     C7     60 0.72110000  12.010000   ; qtot 0.668900
   61          c      2    bbb     C8     61 0.72110000  12.010000   ; qtot 1.390000
   62          o      2    bbb     O1     62 -0.61950000  16.000000   ; qtot 0.770500
   63          o      2    bbb     O2     63 -0.61950000  16.000000   ; qtot 0.151000
   64          n      2    bbb     N4     64 -0.46580000  14.010000   ; qtot -0.314800
   65         hn      2    bbb    H21     65 0.31480000   1.008000   ; qtot -0.000000
; residue    3 bbb rtp bbb q -0.0
   66         c3      3    bbb     C1     66 0.44180000  12.010000   ; qtot 0.441800
   67         h1      3    bbb     H1     67 -0.03530000   1.008000   ; qtot 0.406500
   68         h1      3    bbb     H2     68 -0.03530000   1.008000   ; qtot 0.371200
   69         c3      3    bbb     C2     69 -0.28250000  12.010000   ; qtot 0.088700
   70         h1      3    bbb     H3     70 0.15710000   1.008000   ; qtot 0.245800
   71         h1      3    bbb     H4     71 0.15710000   1.008000   ; qtot 0.402900
   72         n3      3    bbb     N1     72 -0.74090000  14.010000   ; qtot -0.338000
   73         c3      3    bbb     C3     73 0.51680000  12.010000   ; qtot 0.178800
   74         h1      3    bbb     H5     74 -0.05230000   1.008000   ; qtot 0.126500
   75         h1      3    bbb     H6     75 -0.05230000   1.008000   ; qtot 0.074200
   76         c3      3    bbb     C4     76 0.51680000  12.010000   ; qtot 0.591000
   77         h1      3    bbb     H7     77 -0.05230000   1.008000   ; qtot 0.538700
   78         h1      3    bbb     H8     78 -0.05230000   1.008000   ; qtot 0.486400
   79         c3      3    bbb     C5     79 -0.60390000  12.010000   ; qtot -0.117500
   80         hc      3    bbb     H9     80 0.16730000   1.008000   ; qtot 0.049800
   81         hc      3    bbb    H10     81 0.16730000   1.008000   ; qtot 0.217100
   82         c3      3    bbb     C6     82 -0.60390000  12.010000   ; qtot -0.386800
   83         hc      3    bbb    H11     83 0.16730000   1.008000   ; qtot -0.219500
   84         hc      3    bbb    H12     84 0.16730000   1.008000   ; qtot -0.052200
   85          c      3    bbb     C7     85 0.72110000  12.010000   ; qtot 0.668900
   86          c      3    bbb     C8     86 0.72110000  12.010000   ; qtot 1.390000
   87          o      3    bbb     O1     87 -0.61950000  16.000000   ; qtot 0.770500
   88          o      3    bbb     O2     88 -0.61950000  16.000000   ; qtot 0.151000
   89          n      3    bbb     N4     89 -0.46580000  14.010000   ; qtot -0.314800
   90         hn      3    bbb    H21     90 0.31480000   1.008000   ; qtot -0.000000
; residue    4 bbb rtp bbb q -0.0
   91         c3      4    bbb     C1     91 0.44180000  12.010000   ; qtot 0.441800
   92         h1      4    bbb     H1     92 -0.03530000   1.008000   ; qtot 0.406500
   93         h1      4    bbb     H2     93 -0.03530000   1.008000   ; qtot 0.371200
   94         c3      4    bbb     C2     94 -0.28250000  12.010000   ; qtot 0.088700
   95         h1      4    bbb     H3     95 0.15710000   1.008000   ; qtot 0.245800
   96         h1      4    bbb     H4     96 0.15710000   1.008000   ; qtot 0.402900
   97         n3      4    bbb     N1     97 -0.74090000  14.010000   ; qtot -0.338000
   98         c3      4    bbb     C3     98 0.51680000  12.010000   ; qtot 0.178800
   99         h1      4    bbb     H5     99 -0.05230000   1.008000   ; qtot 0.126500
  100         h1      4    bbb     H6    100 -0.05230000   1.008000   ; qtot 0.074200
  101         c3      4    bbb     C4    101 0.51680000  12.010000   ; qtot 0.591000
  102         h1      4    bbb     H7    102 -0.05230000   1.008000   ; qtot 0.538700
  103         h1      4    bbb     H8    103 -0.05230000   1.008000   ; qtot 0.486400
  104         c3      4    bbb     C5    104 -0.60390000  12.010000   ; qtot -0.117500
  105         hc      4    bbb     H9    105 0.16730000   1.008000   ; qtot 0.049800
  106         hc      4    bbb    H10    106 0.16730000   1.008000   ; qtot 0.217100
  107         c3      4    bbb     C6    107 -0.60390000  12.010000   ; qtot -0.386800
  108         hc      4    bbb    H11    108 0.16730000   1.008000   ; qtot -0.219500
  109         hc      4    bbb    H12    109 0.16730000   1.008000   ; qtot -0.052200
  110          c      4    bbb     C7    110 0.72110000  12.010000   ; qtot 0.668900
  111          c      4    bbb     C8    111 0.72110000  12.010000   ; qtot 1.390000
  112          o      4    bbb     O1    112 -0.61950000  16.000000   ; qtot 0.770500
  113          o      4    bbb     O2    113 -0.61950000  16.000000   ; qtot 0.151000
  114          n      4    bbb     N4    114 -0.46580000  14.010000   ; qtot -0.314800
  115         hn      4    bbb    H21    115 0.31480000   1.008000   ; qtot -0.000000
; residue    5 bbb rtp bbb q -0.0
  116         c3      5    bbb     C1    116 0.44180000  12.010000   ; qtot 0.441800
  117         h1      5    bbb     H1    117 -0.03530000   1.008000   ; qtot 0.406500
  118         h1      5    bbb     H2    118 -0.03530000   1.008000   ; qtot 0.371200
  119         c3      5    bbb     C2    119 -0.28250000  12.010000   ; qtot 0.088700
  120         h1      5    bbb     H3    120 0.15710000   1.008000   ; qtot 0.245800
  121         h1      5    bbb     H4    121 0.15710000   1.008000   ; qtot 0.402900
  122         n3      5    bbb     N1    122 -0.74090000  14.010000   ; qtot -0.338000
  123         c3      5    bbb     C3    123 0.51680000  12.010000   ; qtot 0.178800
  124         h1      5    bbb     H5    124 -0.05230000   1.008000   ; qtot 0.126500
  125         h1      5    bbb     H6    125 -0.05230000   1.008000   ; qtot 0.074200
  126         c3      5    bbb     C4    126 0.51680000  12.010000   ; qtot 0.591000
  127         h1      5    bbb     H7    127 -0.05230000   1.008000   ; qtot 0.538700
  128         h1      5    bbb     H8    128 -0.05230000   1.008000   ; qtot 0.486400
  129         c3      5    bbb     C5    129 -0.60390000  12.010000   ; qtot -0.117500
  130         hc      5    bbb     H9    130 0.16730000   1.008000   ; qtot 0.049800
  131         hc      5    bbb    H10    131 0.16730000   1.008000   ; qtot 0.217100
  132         c3      5    bbb     C6    132 -0.60390000  12.010000   ; qtot -0.386800
  133         hc      5    bbb    H11    133 0.16730000   1.008000   ; qtot -0.219500
  134         hc      5    bbb    H12    134 0.16730000   1.008000   ; qtot -0.052200
  135          c      5    bbb     C7    135 0.72110000  12.010000   ; qtot 0.668900
  136          c      5    bbb     C8    136 0.72110000  12.010000   ; qtot 1.390000
  137          o      5    bbb     O1    137 -0.61950000  16.000000   ; qtot 0.770500
  138          o      5    bbb     O2    138 -0.61950000  16.000000   ; qtot 0.151000
  139          n      5    bbb     N4    139 -0.46580000  14.010000   ; qtot -0.314800
  140         hn      5    bbb    H21    140 0.31480000   1.008000   ; qtot -0.000000
; residue    6 ccc rtp ccc q -2.0
  141          n      6    ccc     N1    141 -0.63700000  14.010000   ; qtot -0.637000
  142         hn      6    ccc     H4    142 0.34234400   1.008000   ; qtot -0.294656
  143         c3      6    ccc     C3    143 0.01091100  12.010000   ; qtot -0.283745
  144         h1      6    ccc     H5    144 0.11190000   1.008000   ; qtot -0.171845
  145         c3      6    ccc     C4    145 -0.06161800  12.010000   ; qtot -0.233463
  146         h1      6    ccc     H6    146 0.11190000   1.008000   ; qtot -0.121563
  147         h1      6    ccc     H7    147 0.11248000   1.008000   ; qtot -0.009083
  148         h1      6    ccc     H8    148 0.11248000   1.008000   ; qtot 0.103397
  149         n3      6    ccc     N2    149 -0.49292700  14.010000   ; qtot -0.389530
  150         c3      6    ccc     C5    150 0.00117700  12.010000   ; qtot -0.388353
  151         c3      6    ccc     C6    151 0.00117700  12.010000   ; qtot -0.387176
  152         h1      6    ccc     H9    152 0.05345200   1.008000   ; qtot -0.333724
  153         c3      6    ccc     C7    153 0.03104100  12.010000   ; qtot -0.302683
  154         h1      6    ccc    H10    154 0.05345200   1.008000   ; qtot -0.249231
  155         hc      6    ccc    H11    155 -0.03377200   1.008000   ; qtot -0.283003
  156         hc      6    ccc    H12    156 -0.03377200   1.008000   ; qtot -0.316775
  157          c      6    ccc     C8    157 0.93072900  12.010000   ; qtot 0.613954
  158          o      6    ccc     O2    158 -0.90377100  16.000000   ; qtot -0.289817
  159          o      6    ccc     O3    159 -0.90377100  16.000000   ; qtot -1.193588
  160         h1      6    ccc    H13    160 0.05345200   1.008000   ; qtot -1.140136
  161         h1      6    ccc    H14    161 0.05345200   1.008000   ; qtot -1.086684
  162         c3      6    ccc     C9    162 0.03104100  12.010000   ; qtot -1.055643
  163         hc      6    ccc    H15    163 -0.03377200   1.008000   ; qtot -1.089415
  164         hc      6    ccc    H16    164 -0.03377200   1.008000   ; qtot -1.123187
  165          c      6    ccc    C10    165 0.93072900  12.010000   ; qtot -0.192458
  166          o      6    ccc     O4    166 -0.90377100  16.000000   ; qtot -1.096229
  167          o      6    ccc     O5    167 -0.90377100  16.000000   ; qtot -2.000000
; residue    7 ccc rtp ccc q -2.0
  168          n      7    ccc     N1    168 -0.63700000  14.010000   ; qtot -2.637000
  169         hn      7    ccc     H4    169 0.34234400   1.008000   ; qtot -2.294656
  170         c3      7    ccc     C3    170 0.01091100  12.010000   ; qtot -2.283745
  171         h1      7    ccc     H5    171 0.11190000   1.008000   ; qtot -2.171845
  172         c3      7    ccc     C4    172 -0.06161800  12.010000   ; qtot -2.233463
  173         h1      7    ccc     H6    173 0.11190000   1.008000   ; qtot -2.121563
  174         h1      7    ccc     H7    174 0.11248000   1.008000   ; qtot -2.009083
  175         h1      7    ccc     H8    175 0.11248000   1.008000   ; qtot -1.896603
  176         n3      7    ccc     N2    176 -0.49292700  14.010000   ; qtot -2.389530
  177         c3      7    ccc     C5    177 0.00117700  12.010000   ; qtot -2.388353
  178         c3      7    ccc     C6    178 0.00117700  12.010000   ; qtot -2.387176
  179         h1      7    ccc     H9    179 0.05345200   1.008000   ; qtot -2.333724
  180         c3      7    ccc     C7    180 0.03104100  12.010000   ; qtot -2.302683
  181         h1      7    ccc    H10    181 0.05345200   1.008000   ; qtot -2.249231
  182         hc      7    ccc    H11    182 -0.03377200   1.008000   ; qtot -2.283003
  183         hc      7    ccc    H12    183 -0.03377200   1.008000   ; qtot -2.316775
  184          c      7    ccc     C8    184 0.93072900  12.010000   ; qtot -1.386046
  185          o      7    ccc     O2    185 -0.90377100  16.000000   ; qtot -2.289817
  186          o      7    ccc     O3    186 -0.90377100  16.000000   ; qtot -3.193588
  187         h1      7    ccc    H13    187 0.05345200   1.008000   ; qtot -3.140136
  188         h1      7    ccc    H14    188 0.05345200   1.008000   ; qtot -3.086684
  189         c3      7    ccc     C9    189 0.03104100  12.010000   ; qtot -3.055643
  190         hc      7    ccc    H15    190 -0.03377200   1.008000   ; qtot -3.089415
  191         hc      7    ccc    H16    191 -0.03377200   1.008000   ; qtot -3.123187
  192          c      7    ccc    C10    192 0.93072900  12.010000   ; qtot -2.192458
  193          o      7    ccc     O4    193 -0.90377100  16.000000   ; qtot -3.096229
  194          o      7    ccc     O5    194 -0.90377100  16.000000   ; qtot -4.000000
; residue    8 ccc rtp ccc q -2.0
  195          n      8    ccc     N1    195 -0.63700000  14.010000   ; qtot -4.637000
  196         hn      8    ccc     H4    196 0.34234400   1.008000   ; qtot -4.294656
  197         c3      8    ccc     C3    197 0.01091100  12.010000   ; qtot -4.283745
  198         h1      8    ccc     H5    198 0.11190000   1.008000   ; qtot -4.171845
  199         c3      8    ccc     C4    199 -0.06161800  12.010000   ; qtot -4.233463
  200         h1      8    ccc     H6    200 0.11190000   1.008000   ; qtot -4.121563
  201         h1      8    ccc     H7    201 0.11248000   1.008000   ; qtot -4.009083
  202         h1      8    ccc     H8    202 0.11248000   1.008000   ; qtot -3.896603
  203         n3      8    ccc     N2    203 -0.49292700  14.010000   ; qtot -4.389530
  204         c3      8    ccc     C5    204 0.00117700  12.010000   ; qtot -4.388353
  205         c3      8    ccc     C6    205 0.00117700  12.010000   ; qtot -4.387176
  206         h1      8    ccc     H9    206 0.05345200   1.008000   ; qtot -4.333724
  207         c3      8    ccc     C7    207 0.03104100  12.010000   ; qtot -4.302683
  208         h1      8    ccc    H10    208 0.05345200   1.008000   ; qtot -4.249231
  209         hc      8    ccc    H11    209 -0.03377200   1.008000   ; qtot -4.283003
  210         hc      8    ccc    H12    210 -0.03377200   1.008000   ; qtot -4.316775
  211          c      8    ccc     C8    211 0.93072900  12.010000   ; qtot -3.386046
  212          o      8    ccc     O2    212 -0.90377100  16.000000   ; qtot -4.289817
  213          o      8    ccc     O3    213 -0.90377100  16.000000   ; qtot -5.193588
  214         h1      8    ccc    H13    214 0.05345200   1.008000   ; qtot -5.140136
  215         h1      8    ccc    H14    215 0.05345200   1.008000   ; qtot -5.086684
  216         c3      8    ccc     C9    216 0.03104100  12.010000   ; qtot -5.055643
  217         hc      8    ccc    H15    217 -0.03377200   1.008000   ; qtot -5.089415
  218         hc      8    ccc    H16    218 -0.03377200   1.008000   ; qtot -5.123187
  219          c      8    ccc    C10    219 0.93072900  12.010000   ; qtot -4.192458
  220          o      8    ccc     O4    220 -0.90377100  16.000000   ; qtot -5.096229
  221          o      8    ccc     O5    221 -0.90377100  16.000000   ; qtot -6.000000
; residue    9 ccc rtp ccc q -2.0
  222          n      9    ccc     N1    222 -0.63700000  14.010000   ; qtot -6.637000
  223         hn      9    ccc     H4    223 0.34234400   1.008000   ; qtot -6.294656
  224         c3      9    ccc     C3    224 0.01091100  12.010000   ; qtot -6.283745
  225         h1      9    ccc     H5    225 0.11190000   1.008000   ; qtot -6.171845
  226         c3      9    ccc     C4    226 -0.06161800  12.010000   ; qtot -6.233463
  227         h1      9    ccc     H6    227 0.11190000   1.008000   ; qtot -6.121563
  228         h1      9    ccc     H7    228 0.11248000   1.008000   ; qtot -6.009083
  229         h1      9    ccc     H8    229 0.11248000   1.008000   ; qtot -5.896603
  230         n3      9    ccc     N2    230 -0.49292700  14.010000   ; qtot -6.389530
  231         c3      9    ccc     C5    231 0.00117700  12.010000   ; qtot -6.388353
  232         c3      9    ccc     C6    232 0.00117700  12.010000   ; qtot -6.387176
  233         h1      9    ccc     H9    233 0.05345200   1.008000   ; qtot -6.333724
  234         c3      9    ccc     C7    234 0.03104100  12.010000   ; qtot -6.302683
  235         h1      9    ccc    H10    235 0.05345200   1.008000   ; qtot -6.249231
  236         hc      9    ccc    H11    236 -0.03377200   1.008000   ; qtot -6.283003
  237         hc      9    ccc    H12    237 -0.03377200   1.008000   ; qtot -6.316775
  238          c      9    ccc     C8    238 0.93072900  12.010000   ; qtot -5.386046
  239          o      9    ccc     O2    239 -0.90377100  16.000000   ; qtot -6.289817
  240          o      9    ccc     O3    240 -0.90377100  16.000000   ; qtot -7.193588
  241         h1      9    ccc    H13    241 0.05345200   1.008000   ; qtot -7.140136
  242         h1      9    ccc    H14    242 0.05345200   1.008000   ; qtot -7.086684
  243         c3      9    ccc     C9    243 0.03104100  12.010000   ; qtot -7.055643
  244         hc      9    ccc    H15    244 -0.03377200   1.008000   ; qtot -7.089415
  245         hc      9    ccc    H16    245 -0.03377200   1.008000   ; qtot -7.123187
  246          c      9    ccc    C10    246 0.93072900  12.010000   ; qtot -6.192458
  247          o      9    ccc     O4    247 -0.90377100  16.000000   ; qtot -7.096229
  248          o      9    ccc     O5    248 -0.90377100  16.000000   ; qtot -8.000000
; residue   10 ccc rtp ccc q -2.0
  249          n     10    ccc     N1    249 -0.63700000  14.010000   ; qtot -8.637000
  250         hn     10    ccc     H4    250 0.34234400   1.008000   ; qtot -8.294656
  251         c3     10    ccc     C3    251 0.01091100  12.010000   ; qtot -8.283745
  252         h1     10    ccc     H5    252 0.11190000   1.008000   ; qtot -8.171845
  253         c3     10    ccc     C4    253 -0.06161800  12.010000   ; qtot -8.233463
  254         h1     10    ccc     H6    254 0.11190000   1.008000   ; qtot -8.121563
  255         h1     10    ccc     H7    255 0.11248000   1.008000   ; qtot -8.009083
  256         h1     10    ccc     H8    256 0.11248000   1.008000   ; qtot -7.896603
  257         n3     10    ccc     N2    257 -0.49292700  14.010000   ; qtot -8.389530
  258         c3     10    ccc     C5    258 0.00117700  12.010000   ; qtot -8.388353
  259         c3     10    ccc     C6    259 0.00117700  12.010000   ; qtot -8.387176
  260         h1     10    ccc     H9    260 0.05345200   1.008000   ; qtot -8.333724
  261         c3     10    ccc     C7    261 0.03104100  12.010000   ; qtot -8.302683
  262         h1     10    ccc    H10    262 0.05345200   1.008000   ; qtot -8.249231
  263         hc     10    ccc    H11    263 -0.03377200   1.008000   ; qtot -8.283003
  264         hc     10    ccc    H12    264 -0.03377200   1.008000   ; qtot -8.316775
  265          c     10    ccc     C8    265 0.93072900  12.010000   ; qtot -7.386046
  266          o     10    ccc     O2    266 -0.90377100  16.000000   ; qtot -8.289817
  267          o     10    ccc     O3    267 -0.90377100  16.000000   ; qtot -9.193588
  268         h1     10    ccc    H13    268 0.05345200   1.008000   ; qtot -9.140136
  269         h1     10    ccc    H14    269 0.05345200   1.008000   ; qtot -9.086684
  270         c3     10    ccc     C9    270 0.03104100  12.010000   ; qtot -9.055643
  271         hc     10    ccc    H15    271 -0.03377200   1.008000   ; qtot -9.089415
  272         hc     10    ccc    H16    272 -0.03377200   1.008000   ; qtot -9.123187
  273          c     10    ccc    C10    273 0.93072900  12.010000   ; qtot -8.192458
  274          o     10    ccc     O4    274 -0.90377100  16.000000   ; qtot -9.096229
  275          o     10    ccc     O5    275 -0.90377100  16.000000   ; qtot -10.000000
; residue   11 ccc rtp ccc q -2.0
  276          n     11    ccc     N1    276 -0.63700000  14.010000   ; qtot -10.637000
  277         hn     11    ccc     H4    277 0.34234400   1.008000   ; qtot -10.294656
  278         c3     11    ccc     C3    278 0.01091100  12.010000   ; qtot -10.283745
  279         h1     11    ccc     H5    279 0.11190000   1.008000   ; qtot -10.171845
  280         c3     11    ccc     C4    280 -0.06161800  12.010000   ; qtot -10.233463
  281         h1     11    ccc     H6    281 0.11190000   1.008000   ; qtot -10.121563
  282         h1     11    ccc     H7    282 0.11248000   1.008000   ; qtot -10.009083
  283         h1     11    ccc     H8    283 0.11248000   1.008000   ; qtot -9.896603
  284         n3     11    ccc     N2    284 -0.49292700  14.010000   ; qtot -10.389530
  285         c3     11    ccc     C5    285 0.00117700  12.010000   ; qtot -10.388353
  286         c3     11    ccc     C6    286 0.00117700  12.010000   ; qtot -10.387176
  287         h1     11    ccc     H9    287 0.05345200   1.008000   ; qtot -10.333724
  288         c3     11    ccc     C7    288 0.03104100  12.010000   ; qtot -10.302683
  289         h1     11    ccc    H10    289 0.05345200   1.008000   ; qtot -10.249231
  290         hc     11    ccc    H11    290 -0.03377200   1.008000   ; qtot -10.283003
  291         hc     11    ccc    H12    291 -0.03377200   1.008000   ; qtot -10.316775
  292          c     11    ccc     C8    292 0.93072900  12.010000   ; qtot -9.386046
  293          o     11    ccc     O2    293 -0.90377100  16.000000   ; qtot -10.289817
  294          o     11    ccc     O3    294 -0.90377100  16.000000   ; qtot -11.193588
  295         h1     11    ccc    H13    295 0.05345200   1.008000   ; qtot -11.140136
  296         h1     11    ccc    H14    296 0.05345200   1.008000   ; qtot -11.086684
  297         c3     11    ccc     C9    297 0.03104100  12.010000   ; qtot -11.055643
  298         hc     11    ccc    H15    298 -0.03377200   1.008000   ; qtot -11.089415
  299         hc     11    ccc    H16    299 -0.03377200   1.008000   ; qtot -11.123187
  300          c     11    ccc    C10    300 0.93072900  12.010000   ; qtot -10.192458
  301          o     11    ccc     O4    301 -0.90377100  16.000000   ; qtot -11.096229
  302          o     11    ccc     O5    302 -0.90377100  16.000000   ; qtot -12.000000
; residue   12 ccc rtp ccc q -2.0
  303          n     12    ccc     N1    303 -0.63700000  14.010000   ; qtot -12.637000
  304         hn     12    ccc     H4    304 0.34234400   1.008000   ; qtot -12.294656
  305         c3     12    ccc     C3    305 0.01091100  12.010000   ; qtot -12.283745
  306         h1     12    ccc     H5    306 0.11190000   1.008000   ; qtot -12.171845
  307         c3     12    ccc     C4    307 -0.06161800  12.010000   ; qtot -12.233463
  308         h1     12    ccc     H6    308 0.11190000   1.008000   ; qtot -12.121563
  309         h1     12    ccc     H7    309 0.11248000   1.008000   ; qtot -12.009083
  310         h1     12    ccc     H8    310 0.11248000   1.008000   ; qtot -11.896603
  311         n3     12    ccc     N2    311 -0.49292700  14.010000   ; qtot -12.389530
  312         c3     12    ccc     C5    312 0.00117700  12.010000   ; qtot -12.388353
  313         c3     12    ccc     C6    313 0.00117700  12.010000   ; qtot -12.387176
  314         h1     12    ccc     H9    314 0.05345200   1.008000   ; qtot -12.333724
  315         c3     12    ccc     C7    315 0.03104100  12.010000   ; qtot -12.302683
  316         h1     12    ccc    H10    316 0.05345200   1.008000   ; qtot -12.249231
  317         hc     12    ccc    H11    317 -0.03377200   1.008000   ; qtot -12.283003
  318         hc     12    ccc    H12    318 -0.03377200   1.008000   ; qtot -12.316775
  319          c     12    ccc     C8    319 0.93072900  12.010000   ; qtot -11.386046
  320          o     12    ccc     O2    320 -0.90377100  16.000000   ; qtot -12.289817
  321          o     12    ccc     O3    321 -0.90377100  16.000000   ; qtot -13.193588
  322         h1     12    ccc    H13    322 0.05345200   1.008000   ; qtot -13.140136
  323         h1     12    ccc    H14    323 0.05345200   1.008000   ; qtot -13.086684
  324         c3     12    ccc     C9    324 0.03104100  12.010000   ; qtot -13.055643
  325         hc     12    ccc    H15    325 -0.03377200   1.008000   ; qtot -13.089415
  326         hc     12    ccc    H16    326 -0.03377200   1.008000   ; qtot -13.123187
  327          c     12    ccc    C10    327 0.93072900  12.010000   ; qtot -12.192458
  328          o     12    ccc     O4    328 -0.90377100  16.000000   ; qtot -13.096229
  329          o     12    ccc     O5    329 -0.90377100  16.000000   ; qtot -14.000000
; residue   13 ccc rtp ccc q -2.0
  330          n     13    ccc     N1    330 -0.63700000  14.010000   ; qtot -14.637000
  331         hn     13    ccc     H4    331 0.34234400   1.008000   ; qtot -14.294656
  332         c3     13    ccc     C3    332 0.01091100  12.010000   ; qtot -14.283745
  333         h1     13    ccc     H5    333 0.11190000   1.008000   ; qtot -14.171845
  334         c3     13    ccc     C4    334 -0.06161800  12.010000   ; qtot -14.233463
  335         h1     13    ccc     H6    335 0.11190000   1.008000   ; qtot -14.121563
  336         h1     13    ccc     H7    336 0.11248000   1.008000   ; qtot -14.009083
  337         h1     13    ccc     H8    337 0.11248000   1.008000   ; qtot -13.896603
  338         n3     13    ccc     N2    338 -0.49292700  14.010000   ; qtot -14.389530
  339         c3     13    ccc     C5    339 0.00117700  12.010000   ; qtot -14.388353
  340         c3     13    ccc     C6    340 0.00117700  12.010000   ; qtot -14.387176
  341         h1     13    ccc     H9    341 0.05345200   1.008000   ; qtot -14.333724
  342         c3     13    ccc     C7    342 0.03104100  12.010000   ; qtot -14.302683
  343         h1     13    ccc    H10    343 0.05345200   1.008000   ; qtot -14.249231
  344         hc     13    ccc    H11    344 -0.03377200   1.008000   ; qtot -14.283003
  345         hc     13    ccc    H12    345 -0.03377200   1.008000   ; qtot -14.316775
  346          c     13    ccc     C8    346 0.93072900  12.010000   ; qtot -13.386046
  347          o     13    ccc     O2    347 -0.90377100  16.000000   ; qtot -14.289817
  348          o     13    ccc     O3    348 -0.90377100  16.000000   ; qtot -15.193588
  349         h1     13    ccc    H13    349 0.05345200   1.008000   ; qtot -15.140136
  350         h1     13    ccc    H14    350 0.05345200   1.008000   ; qtot -15.086684
  351         c3     13    ccc     C9    351 0.03104100  12.010000   ; qtot -15.055643
  352         hc     13    ccc    H15    352 -0.03377200   1.008000   ; qtot -15.089415
  353         hc     13    ccc    H16    353 -0.03377200   1.008000   ; qtot -15.123187
  354          c     13    ccc    C10    354 0.93072900  12.010000   ; qtot -14.192458
  355          o     13    ccc     O4    355 -0.90377100  16.000000   ; qtot -15.096229
  356          o     13    ccc     O5    356 -0.90377100  16.000000   ; qtot -16.000000

[ bonds ]
;    ai     aj funct         c0         c1         c2         c3
      1      4     1   0.15375 251793.120000
      1      8     1   0.14647 272713.120000
      4      7     1   0.14647 272713.120000
      7     15     1   0.14647 272713.120000
      7     18     1   0.14647 272713.120000
      8      9     1   0.14647 272713.120000
      8     12     1   0.14647 272713.120000
      9     30     1   0.15375 251793.120000
     12     27     1   0.15375 251793.120000
     15     21     1   0.15375 251793.120000
     18     24     1   0.15375 251793.120000
     21     35     1   0.15241 261918.400000
     24     36     1   0.15241 261918.400000
     27     33     1   0.15241 261918.400000
     30     34     1   0.15241 261918.400000
     33     37     1   0.12183 533627.360000
     33     64     1   0.13789 357815.680000
     34     40     1   0.12183 533627.360000
     34     89     1   0.13789 357815.680000
     35     38     1   0.12183 533627.360000
     35    114     1   0.13789 357815.680000
     36     39     1   0.12183 533627.360000
     36    139     1   0.13789 357815.680000
     41     44     1   0.15375 251793.120000
     41     47     1   0.14647 272713.120000
     44     64     1   0.14619 275056.160000
     47     48     1   0.14647 272713.120000
     47     51     1   0.14647 272713.120000
     48     57     1   0.15375 251793.120000
     51     54     1   0.15375 251793.120000
     54     60     1   0.15241 261918.400000
     57     61     1   0.15241 261918.400000
     60    141     1   0.13789 357815.680000
     60     62     1   0.12183 533627.360000
     61     63     1   0.12183 533627.360000
     61    168     1   0.13789 357815.680000
     66     69     1   0.15375 251793.120000
     66     72     1   0.14647 272713.120000
     69     89     1   0.14619 275056.160000
     72     73     1   0.14647 272713.120000
     72     76     1   0.14647 272713.120000
     73     82     1   0.15375 251793.120000
     76     79     1   0.15375 251793.120000
     79     85     1   0.15241 261918.400000
     82     86     1   0.15241 261918.400000
     85    195     1   0.13789 357815.680000
     85     87     1   0.12183 533627.360000
     86     88     1   0.12183 533627.360000
     86    222     1   0.13789 357815.680000
     91     94     1   0.15375 251793.120000
     91     97     1   0.14647 272713.120000
     94    114     1   0.14619 275056.160000
     97     98     1   0.14647 272713.120000
     97    101     1   0.14647 272713.120000
     98    107     1   0.15375 251793.120000
    101    104     1   0.15375 251793.120000
    104    110     1   0.15241 261918.400000
    107    111     1   0.15241 261918.400000
    110    249     1   0.13789 357815.680000
    110    112     1   0.12183 533627.360000
    111    113     1   0.12183 533627.360000
    111    276     1   0.13789 357815.680000
    116    119     1   0.15375 251793.120000
    116    122     1   0.14647 272713.120000
    119    139     1   0.14619 275056.160000
    122    123     1   0.14647 272713.120000
    122    126     1   0.14647 272713.120000
    123    132     1   0.15375 251793.120000
    126    129     1   0.15375 251793.120000
    129    135     1   0.15241 261918.400000
    132    136     1   0.15241 261918.400000
    135    303     1   0.13789 357815.680000
    135    137     1   0.12183 533627.360000
    136    330     1   0.13789 357815.680000
    136    138     1   0.12183 533627.360000
    141    143     1   0.14619 275056.160000
    143    145     1   0.15375 251793.120000
    145    149     1   0.14647 272713.120000
    149    150     1   0.14647 272713.120000
    149    151     1   0.14647 272713.120000
    150    162     1   0.15375 251793.120000
    151    153     1   0.15375 251793.120000
    153    157     1   0.15241 261918.400000
    157    158     1   0.12183 533627.360000
    157    159     1   0.12183 533627.360000
    162    165     1   0.15241 261918.400000
    165    166     1   0.12183 533627.360000
    165    167     1   0.12183 533627.360000
    168    170     1   0.14619 275056.160000
    170    172     1   0.15375 251793.120000
    172    176     1   0.14647 272713.120000
    176    177     1   0.14647 272713.120000
    176    178     1   0.14647 272713.120000
    177    189     1   0.15375 251793.120000
    178    180     1   0.15375 251793.120000
    180    184     1   0.15241 261918.400000
    184    185     1   0.12183 533627.360000
    184    186     1   0.12183 533627.360000
    189    192     1   0.15241 261918.400000
    192    193     1   0.12183 533627.360000
    192    194     1   0.12183 533627.360000
    195    197     1   0.14619 275056.160000
    197    199     1   0.15375 251793.120000
    199    203     1   0.14647 272713.120000
    203    204     1   0.14647 272713.120000
    203    205     1   0.14647 272713.120000
    204    216     1   0.15375 251793.120000
    205    207     1   0.15375 251793.120000
    207    211     1   0.15241 261918.400000
    211    212     1   0.12183 533627.360000
    211    213     1   0.12183 533627.360000
    216    219     1   0.15241 261918.400000
    219    220     1   0.12183 533627.360000
    219    221     1   0.12183 533627.360000
    222    224     1   0.14619 275056.160000
    224    226     1   0.15375 251793.120000
    226    230     1   0.14647 272713.120000
    230    231     1   0.14647 272713.120000
    230    232     1   0.14647 272713.120000
    231    243     1   0.15375 251793.120000
    232    234     1   0.15375 251793.120000
    234    238     1   0.15241 261918.400000
    238    239     1   0.12183 533627.360000
    238    240     1   0.12183 533627.360000
    243    246     1   0.15241 261918.400000
    246    247     1   0.12183 533627.360000
    246    248     1   0.12183 533627.360000
    249    251     1   0.14619 275056.160000
    251    253     1   0.15375 251793.120000
    253    257     1   0.14647 272713.120000
    257    258     1   0.14647 272713.120000
    257    259     1   0.14647 272713.120000
    258    270     1   0.15375 251793.120000
    259    261     1   0.15375 251793.120000
    261    265     1   0.15241 261918.400000
    265    266     1   0.12183 533627.360000
    265    267     1   0.12183 533627.360000
    270    273     1   0.15241 261918.400000
    273    274     1   0.12183 533627.360000
    273    275     1   0.12183 533627.360000
    276    278     1   0.14619 275056.160000
    278    280     1   0.15375 251793.120000
    280    284     1   0.14647 272713.120000
    284    285     1   0.14647 272713.120000
    284    286     1   0.14647 272713.120000
    285    297     1   0.15375 251793.120000
    286    288     1   0.15375 251793.120000
    288    292     1   0.15241 261918.400000
    292    293     1   0.12183 533627.360000
    292    294     1   0.12183 533627.360000
    297    300     1   0.15241 261918.400000
    300    301     1   0.12183 533627.360000
    300    302     1   0.12183 533627.360000
    303    305     1   0.14619 275056.160000
    305    307     1   0.15375 251793.120000
    307    311     1   0.14647 272713.120000
    311    312     1   0.14647 272713.120000
    311    313     1   0.14647 272713.120000
    312    324     1   0.15375 251793.120000
    313    315     1   0.15375 251793.120000
    315    319     1   0.15241 261918.400000
    319    320     1   0.12183 533627.360000
    319    321     1   0.12183 533627.360000
    324    327     1   0.15241 261918.400000
    327    328     1   0.12183 533627.360000
    327    329     1   0.12183 533627.360000
    330    332     1   0.14619 275056.160000
    332    334     1   0.15375 251793.120000
    334    338     1   0.14647 272713.120000
    338    339     1   0.14647 272713.120000
    338    340     1   0.14647 272713.120000
    339    351     1   0.15375 251793.120000
    340    342     1   0.15375 251793.120000
    342    346     1   0.15241 261918.400000
    346    347     1   0.12183 533627.360000
    346    348     1   0.12183 533627.360000
    351    354     1   0.15241 261918.400000
    354    355     1   0.12183 533627.360000
    354    356     1   0.12183 533627.360000
      1      2     1   0.10969 276646.080000
      1      3     1   0.10969 276646.080000
      4      5     1   0.10969 276646.080000
      4      6     1   0.10969 276646.080000
      9     10     1   0.10969 276646.080000
      9     11     1   0.10969 276646.080000
     12     13     1   0.10969 276646.080000
     12     14     1   0.10969 276646.080000
     15     16     1   0.10969 276646.080000
     15     17     1   0.10969 276646.080000
     18     19     1   0.10969 276646.080000
     18     20     1   0.10969 276646.080000
     21     22     1   0.10969 276646.080000
     21     23     1   0.10969 276646.080000
     24     25     1   0.10969 276646.080000
     24     26     1   0.10969 276646.080000
     27     28     1   0.10969 276646.080000
     27     29     1   0.10969 276646.080000
     30     31     1   0.10969 276646.080000
     30     32     1   0.10969 276646.080000
     41     42     1   0.10969 276646.080000
     41     43     1   0.10969 276646.080000
     44     45     1   0.10969 276646.080000
     44     46     1   0.10969 276646.080000
     48     49     1   0.10969 276646.080000
     48     50     1   0.10969 276646.080000
     51     52     1   0.10969 276646.080000
     51     53     1   0.10969 276646.080000
     54     55     1   0.10969 276646.080000
     54     56     1   0.10969 276646.080000
     57     58     1   0.10969 276646.080000
     57     59     1   0.10969 276646.080000
     64     65     1   0.10129 337397.760000
     66     67     1   0.10969 276646.080000
     66     68     1   0.10969 276646.080000
     69     70     1   0.10969 276646.080000
     69     71     1   0.10969 276646.080000
     73     74     1   0.10969 276646.080000
     73     75     1   0.10969 276646.080000
     76     77     1   0.10969 276646.080000
     76     78     1   0.10969 276646.080000
     79     80     1   0.10969 276646.080000
     79     81     1   0.10969 276646.080000
     82     83     1   0.10969 276646.080000
     82     84     1   0.10969 276646.080000
     89     90     1   0.10129 337397.760000
     91     92     1   0.10969 276646.080000
     91     93     1   0.10969 276646.080000
     94     95     1   0.10969 276646.080000
     94     96     1   0.10969 276646.080000
     98     99     1   0.10969 276646.080000
     98    100     1   0.10969 276646.080000
    101    102     1   0.10969 276646.080000
    101    103     1   0.10969 276646.080000
    104    105     1   0.10969 276646.080000
    104    106     1   0.10969 276646.080000
    107    108     1   0.10969 276646.080000
    107    109     1   0.10969 276646.080000
    114    115     1   0.10129 337397.760000
    116    117     1   0.10969 276646.080000
    116    118     1   0.10969 276646.080000
    119    120     1   0.10969 276646.080000
    119    121     1   0.10969 276646.080000
    123    124     1   0.10969 276646.080000
    123    125     1   0.10969 276646.080000
    126    127     1   0.10969 276646.080000
    126    128     1   0.10969 276646.080000
    129    130     1   0.10969 276646.080000
    129    131     1   0.10969 276646.080000
    132    133     1   0.10969 276646.080000
    132    134     1   0.10969 276646.080000
    139    140     1   0.10129 337397.760000
    141    142     1   0.10129 337397.760000
    143    144     1   0.10969 276646.080000
    143    146     1   0.10969 276646.080000
    145    147     1   0.10969 276646.080000
    145    148     1   0.10969 276646.080000
    150    160     1   0.10969 276646.080000
    150    161     1   0.10969 276646.080000
    151    152     1   0.10969 276646.080000
    151    154     1   0.10969 276646.080000
    153    155     1   0.10969 276646.080000
    153    156     1   0.10969 276646.080000
    162    163     1   0.10969 276646.080000
    162    164     1   0.10969 276646.080000
    168    169     1   0.10129 337397.760000
    170    171     1   0.10969 276646.080000
    170    173     1   0.10969 276646.080000
    172    174     1   0.10969 276646.080000
    172    175     1   0.10969 276646.080000
    177    187     1   0.10969 276646.080000
    177    188     1   0.10969 276646.080000
    178    179     1   0.10969 276646.080000
    178    181     1   0.10969 276646.080000
    180    182     1   0.10969 276646.080000
    180    183     1   0.10969 276646.080000
    189    190     1   0.10969 276646.080000
    189    191     1   0.10969 276646.080000
    195    196     1   0.10129 337397.760000
    197    198     1   0.10969 276646.080000
    197    200     1   0.10969 276646.080000
    199    201     1   0.10969 276646.080000
    199    202     1   0.10969 276646.080000
    204    214     1   0.10969 276646.080000
    204    215     1   0.10969 276646.080000
    205    206     1   0.10969 276646.080000
    205    208     1   0.10969 276646.080000
    207    209     1   0.10969 276646.080000
    207    210     1   0.10969 276646.080000
    216    217     1   0.10969 276646.080000
    216    218     1   0.10969 276646.080000
    222    223     1   0.10129 337397.760000
    224    225     1   0.10969 276646.080000
    224    227     1   0.10969 276646.080000
    226    228     1   0.10969 276646.080000
    226    229     1   0.10969 276646.080000
    231    241     1   0.10969 276646.080000
    231    242     1   0.10969 276646.080000
    232    233     1   0.10969 276646.080000
    232    235     1   0.10969 276646.080000
    234    236     1   0.10969 276646.080000
    234    237     1   0.10969 276646.080000
    243    244     1   0.10969 276646.080000
    243    245     1   0.10969 276646.080000
    249    250     1   0.10129 337397.760000
    251    252     1   0.10969 276646.080000
    251    254     1   0.10969 276646.080000
    253    255     1   0.10969 276646.080000
    253    256     1   0.10969 276646.080000
    258    268     1   0.10969 276646.080000
    258    269     1   0.10969 276646.080000
    259    260     1   0.10969 276646.080000
    259    262     1   0.10969 276646.080000
    261    263     1   0.10969 276646.080000
    261    264     1   0.10969 276646.080000
    270    271     1   0.10969 276646.080000
    270    272     1   0.10969 276646.080000
    276    277     1   0.10129 337397.760000
    278    279     1   0.10969 276646.080000
    278    281     1   0.10969 276646.080000
    280    282     1   0.10969 276646.080000
    280    283     1   0.10969 276646.080000
    285    295     1   0.10969 276646.080000
    285    296     1   0.10969 276646.080000
    286    287     1   0.10969 276646.080000
    286    289     1   0.10969 276646.080000
    288    290     1   0.10969 276646.080000
    288    291     1   0.10969 276646.080000
    297    298     1   0.10969 276646.080000
    297    299     1   0.10969 276646.080000
    303    304     1   0.10129 337397.760000
    305    306     1   0.10969 276646.080000
    305    308     1   0.10969 276646.080000
    307    309     1   0.10969 276646.080000
    307    310     1   0.10969 276646.080000
    312    322     1   0.10969 276646.080000
    312    323     1   0.10969 276646.080000
    313    314     1   0.10969 276646.080000
    313    316     1   0.10969 276646.080000
    315    317     1   0.10969 276646.080000
    315    318     1   0.10969 276646.080000
    324    325     1   0.10969 276646.080000
    324    326     1   0.10969 276646.080000
    330    331     1   0.10129 337397.760000
    332    333     1   0.10969 276646.080000
    332    335     1   0.10969 276646.080000
    334    336     1   0.10969 276646.080000
    334    337     1   0.10969 276646.080000
    339    349     1   0.10969 276646.080000
    339    350     1   0.10969 276646.080000
    340    341     1   0.10969 276646.080000
    340    343     1   0.10969 276646.080000
    342    344     1   0.10969 276646.080000
    342    345     1   0.10969 276646.080000
    351    352     1   0.10969 276646.080000
    351    353     1   0.10969 276646.080000

[ pairs ]
;    ai     aj funct         c0         c1         c2         c3
      1     15     1
      1     18     1
      1     30     1
      1     27     1
      4      9     1
      4     12     1
      4     21     1
      4     24     1
      8      7     1
      7     35     1
      7     36     1
      8     34     1
      8     33     1
      9     27     1
      9     40     1
      9     89     1
     12     30     1
     12     37     1
     12     64     1
     15     24     1
     15     38     1
     15    114     1
     18     21     1
     18     39     1
     18    139     1
     21     94     1
     24    119     1
     27     44     1
     30     69     1
     33     41     1
     34     66     1
     35     91     1
     36    116     1
     37     44     1
     38     94     1
     39    119     1
     40     69     1
     41     57     1
     41     54     1
     44     48     1
     44     51     1
     47     64     1
     47     61     1
     47     60     1
     48     54     1
     48     63     1
     48    168     1
     51     57     1
     51    141     1
     51     62     1
     54    143     1
     57    170     1
     60    145     1
     61    172     1
     62    143     1
     63    170     1
     66     82     1
     66     79     1
     69     73     1
     69     76     1
     72     89     1
     72     86     1
     72     85     1
     73     79     1
     73     88     1
     73    222     1
     76     82     1
     76    195     1
     76     87     1
     79    197     1
     82    224     1
     85    199     1
     86    226     1
     87    197     1
     88    224     1
     91    107     1
     91    104     1
     94     98     1
     94    101     1
     97    114     1
     97    111     1
     97    110     1
     98    104     1
     98    113     1
     98    276     1
    101    107     1
    101    249     1
    101    112     1
    104    251     1
    107    278     1
    110    253     1
    111    280     1
    112    251     1
    113    278     1
    116    132     1
    116    129     1
    119    123     1
    119    126     1
    122    139     1
    122    136     1
    122    135     1
    123    129     1
    123    330     1
    123    138     1
    126    132     1
    126    303     1
    126    137     1
    129    305     1
    132    332     1
    135    307     1
    136    334     1
    137    305     1
    138    332     1
    141    149     1
    143    150     1
    143    151     1
    145    162     1
    145    153     1
    149    165     1
    149    157     1
    150    153     1
    150    166     1
    150    167     1
    151    162     1
    151    158     1
    151    159     1
    168    176     1
    170    177     1
    170    178     1
    172    189     1
    172    180     1
    176    192     1
    176    184     1
    177    193     1
    177    194     1
    177    180     1
    178    185     1
    178    186     1
    178    189     1
    195    203     1
    197    204     1
    197    205     1
    199    216     1
    199    207     1
    203    219     1
    203    211     1
    204    207     1
    204    220     1
    204    221     1
    205    216     1
    205    212     1
    205    213     1
    222    230     1
    224    231     1
    224    232     1
    226    243     1
    226    234     1
    230    246     1
    230    238     1
    231    247     1
    231    248     1
    231    234     1
    232    239     1
    232    240     1
    232    243     1
    249    257     1
    251    258     1
    251    259     1
    253    270     1
    253    261     1
    257    273     1
    257    265     1
    258    261     1
    258    274     1
    258    275     1
    259    270     1
    259    266     1
    259    267     1
    276    284     1
    278    285     1
    278    286     1
    280    297     1
    280    288     1
    284    300     1
    284    292     1
    285    301     1
    285    302     1
    285    288     1
    286    293     1
    286    294     1
    286    297     1
    303    311     1
    305    312     1
    305    313     1
    307    324     1
    307    315     1
    311    327     1
    311    319     1
    312    315     1
    312    328     1
    312    329     1
    313    324     1
    313    320     1
    313    321     1
    330    338     1
    332    339     1
    332    340     1
    334    351     1
    334    342     1
    338    354     1
    338    346     1
    339    355     1
    339    356     1
    339    342     1
    340    347     1
    340    348     1
    340    351     1
      1     10     1
      1     11     1
      1     13     1
      1     14     1
      2      7     1
      2      5     1
      2      6     1
      2      9     1
      2     12     1
      3      7     1
      3      5     1
      3      6     1
      3      9     1
      3     12     1
      4     16     1
      4     17     1
      4     19     1
      4     20     1
      8      5     1
      5     15     1
      5     18     1
      8      6     1
      6     15     1
      6     18     1
      7     22     1
      7     23     1
      7     25     1
      7     26     1
      8     31     1
      8     32     1
      8     28     1
      8     29     1
      9     13     1
      9     14     1
     10     12     1
     10     34     1
     10     31     1
     10     32     1
     11     12     1
     11     34     1
     11     31     1
     11     32     1
     13     33     1
     13     28     1
     13     29     1
     14     33     1
     14     28     1
     14     29     1
     15     19     1
     15     20     1
     16     18     1
     16     35     1
     16     22     1
     16     23     1
     17     18     1
     17     35     1
     17     22     1
     17     23     1
     19     36     1
     19     25     1
     19     26     1
     20     36     1
     20     25     1
     20     26     1
     21    115     1
     22     38     1
     22    114     1
     23     38     1
     23    114     1
     24    140     1
     25     39     1
     25    139     1
     26     39     1
     26    139     1
     27     65     1
     28     37     1
     28     64     1
     29     37     1
     29     64     1
     30     90     1
     31     40     1
     31     89     1
     32     40     1
     32     89     1
     33     45     1
     33     46     1
     34     70     1
     34     71     1
     35     95     1
     35     96     1
     36    120     1
     36    121     1
     37     65     1
     38    115     1
     39    140     1
     40     90     1
     41     65     1
     41     49     1
     41     50     1
     41     52     1
     41     53     1
     42     64     1
     42     45     1
     42     46     1
     42     48     1
     42     51     1
     43     64     1
     43     45     1
     43     46     1
     43     48     1
     43     51     1
     45     47     1
     45     65     1
     46     47     1
     46     65     1
     47     58     1
     47     59     1
     47     55     1
     47     56     1
     48     52     1
     48     53     1
     49     51     1
     49     61     1
     49     58     1
     49     59     1
     50     51     1
     50     61     1
     50     58     1
     50     59     1
     52     60     1
     52     55     1
     52     56     1
     53     60     1
     53     55     1
     53     56     1
     54    142     1
     55    141     1
     55     62     1
     56    141     1
     56     62     1
     57    169     1
     58     63     1
     58    168     1
     59     63     1
     59    168     1
     60    144     1
     60    146     1
     61    171     1
     61    173     1
     62    142     1
     63    169     1
     66     90     1
     66     74     1
     66     75     1
     66     77     1
     66     78     1
     67     89     1
     67     70     1
     67     71     1
     67     73     1
     67     76     1
     68     89     1
     68     70     1
     68     71     1
     68     73     1
     68     76     1
     70     72     1
     70     90     1
     71     72     1
     71     90     1
     72     83     1
     72     84     1
     72     80     1
     72     81     1
     73     77     1
     73     78     1
     74     76     1
     74     86     1
     74     83     1
     74     84     1
     75     76     1
     75     86     1
     75     83     1
     75     84     1
     77     85     1
     77     80     1
     77     81     1
     78     85     1
     78     80     1
     78     81     1
     79    196     1
     80    195     1
     80     87     1
     81    195     1
     81     87     1
     82    223     1
     83     88     1
     83    222     1
     84     88     1
     84    222     1
     85    198     1
     85    200     1
     86    225     1
     86    227     1
     87    196     1
     88    223     1
     91    115     1
     91     99     1
     91    100     1
     91    102     1
     91    103     1
     92    114     1
     92     95     1
     92     96     1
     92     98     1
     92    101     1
     93    114     1
     93     95     1
     93     96     1
     93     98     1
     93    101     1
     95     97     1
     95    115     1
     96     97     1
     96    115     1
     97    108     1
     97    109     1
     97    105     1
     97    106     1
     98    102     1
     98    103     1
     99    101     1
     99    111     1
     99    108     1
     99    109     1
    100    101     1
    100    111     1
    100    108     1
    100    109     1
    102    110     1
    102    105     1
    102    106     1
    103    110     1
    103    105     1
    103    106     1
    104    250     1
    105    249     1
    105    112     1
    106    249     1
    106    112     1
    107    277     1
    108    113     1
    108    276     1
    109    113     1
    109    276     1
    110    252     1
    110    254     1
    111    279     1
    111    281     1
    112    250     1
    113    277     1
    116    140     1
    116    124     1
    116    125     1
    116    127     1
    116    128     1
    117    139     1
    117    120     1
    117    121     1
    117    123     1
    117    126     1
    118    139     1
    118    120     1
    118    121     1
    118    123     1
    118    126     1
    120    122     1
    120    140     1
    121    122     1
    121    140     1
    122    133     1
    122    134     1
    122    130     1
    122    131     1
    123    127     1
    123    128     1
    124    126     1
    124    136     1
    124    133     1
    124    134     1
    125    126     1
    125    136     1
    125    133     1
    125    134     1
    127    135     1
    127    130     1
    127    131     1
    128    135     1
    128    130     1
    128    131     1
    129    304     1
    130    303     1
    130    137     1
    131    303     1
    131    137     1
    132    331     1
    133    330     1
    133    138     1
    134    330     1
    134    138     1
    135    306     1
    135    308     1
    136    333     1
    136    335     1
    137    304     1
    138    331     1
    141    147     1
    141    148     1
    142    145     1
    142    144     1
    142    146     1
    144    149     1
    144    147     1
    144    148     1
    145    160     1
    145    161     1
    145    152     1
    145    154     1
    146    149     1
    146    147     1
    146    148     1
    147    150     1
    147    151     1
    148    150     1
    148    151     1
    149    163     1
    149    164     1
    149    155     1
    149    156     1
    150    152     1
    150    154     1
    151    160     1
    151    161     1
    152    157     1
    152    155     1
    152    156     1
    154    157     1
    154    155     1
    154    156     1
    155    158     1
    155    159     1
    156    158     1
    156    159     1
    160    165     1
    160    163     1
    160    164     1
    161    165     1
    161    163     1
    161    164     1
    163    166     1
    163    167     1
    164    166     1
    164    167     1
    168    174     1
    168    175     1
    169    172     1
    169    171     1
    169    173     1
    171    176     1
    171    174     1
    171    175     1
    172    187     1
    172    188     1
    172    179     1
    172    181     1
    173    176     1
    173    174     1
    173    175     1
    174    177     1
    174    178     1
    175    177     1
    175    178     1
    176    190     1
    176    191     1
    176    182     1
    176    183     1
    177    179     1
    177    181     1
    178    187     1
    178    188     1
    179    184     1
    179    182     1
    179    183     1
    181    184     1
    181    182     1
    181    183     1
    182    185     1
    182    186     1
    183    185     1
    183    186     1
    187    192     1
    187    190     1
    187    191     1
    188    192     1
    188    190     1
    188    191     1
    190    193     1
    190    194     1
    191    193     1
    191    194     1
    195    201     1
    195    202     1
    196    199     1
    196    198     1
    196    200     1
    198    203     1
    198    201     1
    198    202     1
    199    214     1
    199    215     1
    199    206     1
    199    208     1
    200    203     1
    200    201     1
    200    202     1
    201    204     1
    201    205     1
    202    204     1
    202    205     1
    203    217     1
    203    218     1
    203    209     1
    203    210     1
    204    206     1
    204    208     1
    205    214     1
    205    215     1
    206    211     1
    206    209     1
    206    210     1
    208    211     1
    208    209     1
    208    210     1
    209    212     1
    209    213     1
    210    212     1
    210    213     1
    214    219     1
    214    217     1
    214    218     1
    215    219     1
    215    217     1
    215    218     1
    217    220     1
    217    221     1
    218    220     1
    218    221     1
    222    228     1
    222    229     1
    223    226     1
    223    225     1
    223    227     1
    225    230     1
    225    228     1
    225    229     1
    226    241     1
    226    242     1
    226    233     1
    226    235     1
    227    230     1
    227    228     1
    227    229     1
    228    231     1
    228    232     1
    229    231     1
    229    232     1
    230    244     1
    230    245     1
    230    236     1
    230    237     1
    231    233     1
    231    235     1
    232    241     1
    232    242     1
    233    238     1
    233    236     1
    233    237     1
    235    238     1
    235    236     1
    235    237     1
    236    239     1
    236    240     1
    237    239     1
    237    240     1
    241    246     1
    241    244     1
    241    245     1
    242    246     1
    242    244     1
    242    245     1
    244    247     1
    244    248     1
    245    247     1
    245    248     1
    249    255     1
    249    256     1
    250    253     1
    250    252     1
    250    254     1
    252    257     1
    252    255     1
    252    256     1
    253    268     1
    253    269     1
    253    260     1
    253    262     1
    254    257     1
    254    255     1
    254    256     1
    255    258     1
    255    259     1
    256    258     1
    256    259     1
    257    271     1
    257    272     1
    257    263     1
    257    264     1
    258    260     1
    258    262     1
    259    268     1
    259    269     1
    260    265     1
    260    263     1
    260    264     1
    262    265     1
    262    263     1
    262    264     1
    263    266     1
    263    267     1
    264    266     1
    264    267     1
    268    273     1
    268    271     1
    268    272     1
    269    273     1
    269    271     1
    269    272     1
    271    274     1
    271    275     1
    272    274     1
    272    275     1
    276    282     1
    276    283     1
    277    280     1
    277    279     1
    277    281     1
    279    284     1
    279    282     1
    279    283     1
    280    295     1
    280    296     1
    280    287     1
    280    289     1
    281    284     1
    281    282     1
    281    283     1
    282    285     1
    282    286     1
    283    285     1
    283    286     1
    284    298     1
    284    299     1
    284    290     1
    284    291     1
    285    287     1
    285    289     1
    286    295     1
    286    296     1
    287    292     1
    287    290     1
    287    291     1
    289    292     1
    289    290     1
    289    291     1
    290    293     1
    290    294     1
    291    293     1
    291    294     1
    295    300     1
    295    298     1
    295    299     1
    296    300     1
    296    298     1
    296    299     1
    298    301     1
    298    302     1
    299    301     1
    299    302     1
    303    309     1
    303    310     1
    304    307     1
    304    306     1
    304    308     1
    306    311     1
    306    309     1
    306    310     1
    307    322     1
    307    323     1
    307    314     1
    307    316     1
    308    311     1
    308    309     1
    308    310     1
    309    312     1
    309    313     1
    310    312     1
    310    313     1
    311    325     1
    311    326     1
    311    317     1
    311    318     1
    312    314     1
    312    316     1
    313    322     1
    313    323     1
    314    319     1
    314    317     1
    314    318     1
    316    319     1
    316    317     1
    316    318     1
    317    320     1
    317    321     1
    318    320     1
    318    321     1
    322    327     1
    322    325     1
    322    326     1
    323    327     1
    323    325     1
    323    326     1
    325    328     1
    325    329     1
    326    328     1
    326    329     1
    330    336     1
    330    337     1
    331    334     1
    331    333     1
    331    335     1
    333    338     1
    333    336     1
    333    337     1
    334    349     1
    334    350     1
    334    341     1
    334    343     1
    335    338     1
    335    336     1
    335    337     1
    336    339     1
    336    340     1
    337    339     1
    337    340     1
    338    352     1
    338    353     1
    338    344     1
    338    345     1
    339    341     1
    339    343     1
    340    349     1
    340    350     1
    341    346     1
    341    344     1
    341    345     1
    343    346     1
    343    344     1
    343    345     1
    344    347     1
    344    348     1
    345    347     1
    345    348     1
    349    354     1
    349    352     1
    349    353     1
    350    354     1
    350    352     1
    350    353     1
    352    355     1
    352    356     1
    353    355     1
    353    356     1

[ angles ]
;    ai     aj     ak funct         c0         c1         c2         c3
      1      4      7     1   111.0400475 552.288000
      1      8      9     1   112.3500484 533.878400
      1      8     12     1   112.3500484 533.878400
      4      1      8     1   111.0400475 552.288000
      4      7     15     1   112.3500484 533.878400
      4      7     18     1   112.3500484 533.878400
      7     15     21     1   111.0400475 552.288000
      7     18     24     1   111.0400475 552.288000
      8      9     30     1   111.0400475 552.288000
      8     12     27     1   111.0400475 552.288000
      9      8     12     1   112.3500484 533.878400
      9     30     34     1   111.0400475 529.694400
     12     27     33     1   111.0400475 529.694400
     15      7     18     1   112.3500484 533.878400
     15     21     35     1   111.0400475 529.694400
     18     24     36     1   111.0400475 529.694400
     21     35     38     1   123.2000528 564.003200
     21     35    114     1   115.1800491 558.982400
     24     36     39     1   123.2000528 564.003200
     24     36    139     1   115.1800491 558.982400
     27     33     37     1   123.2000528 564.003200
     27     33     64     1   115.1800491 558.982400
     30     34     40     1   123.2000528 564.003200
     30     34     89     1   115.1800491 558.982400
     33     64     44     1   120.6900519 530.531200
     34     89     69     1   120.6900519 530.531200
     35    114     94     1   120.6900519 530.531200
     36    139    119     1   120.6900519 530.531200
     37     33     64     1   123.0500530 620.905600
     38     35    114     1   123.0500530 620.905600
     39     36    139     1   123.0500530 620.905600
     40     34     89     1   123.0500530 620.905600
     41     44     64     1   111.6100477 551.451200
     41     47     48     1   112.3500484 533.878400
     41     47     51     1   112.3500484 533.878400
     44     41     47     1   111.0400475 552.288000
     47     48     57     1   111.0400475 552.288000
     47     51     54     1   111.0400475 552.288000
     48     47     51     1   112.3500484 533.878400
     48     57     61     1   111.0400475 529.694400
     51     54     60     1   111.0400475 529.694400
     54     60    141     1   115.1800491 558.982400
     54     60     62     1   123.2000528 564.003200
     57     61     63     1   123.2000528 564.003200
     57     61    168     1   115.1800491 558.982400
     60    141    143     1   120.6900519 530.531200
     61    168    170     1   120.6900519 530.531200
     62     60    141     1   123.0500530 620.905600
     63     61    168     1   123.0500530 620.905600
     66     69     89     1   111.6100477 551.451200
     66     72     73     1   112.3500484 533.878400
     66     72     76     1   112.3500484 533.878400
     69     66     72     1   111.0400475 552.288000
     72     73     82     1   111.0400475 552.288000
     72     76     79     1   111.0400475 552.288000
     73     72     76     1   112.3500484 533.878400
     73     82     86     1   111.0400475 529.694400
     76     79     85     1   111.0400475 529.694400
     79     85    195     1   115.1800491 558.982400
     79     85     87     1   123.2000528 564.003200
     82     86     88     1   123.2000528 564.003200
     82     86    222     1   115.1800491 558.982400
     85    195    197     1   120.6900519 530.531200
     86    222    224     1   120.6900519 530.531200
     87     85    195     1   123.0500530 620.905600
     88     86    222     1   123.0500530 620.905600
     91     94    114     1   111.6100477 551.451200
     91     97     98     1   112.3500484 533.878400
     91     97    101     1   112.3500484 533.878400
     94     91     97     1   111.0400475 552.288000
     97     98    107     1   111.0400475 552.288000
     97    101    104     1   111.0400475 552.288000
     98     97    101     1   112.3500484 533.878400
     98    107    111     1   111.0400475 529.694400
    101    104    110     1   111.0400475 529.694400
    104    110    249     1   115.1800491 558.982400
    104    110    112     1   123.2000528 564.003200
    107    111    113     1   123.2000528 564.003200
    107    111    276     1   115.1800491 558.982400
    110    249    251     1   120.6900519 530.531200
    111    276    278     1   120.6900519 530.531200
    112    110    249     1   123.0500530 620.905600
    113    111    276     1   123.0500530 620.905600
    116    119    139     1   111.6100477 551.451200
    116    122    123     1   112.3500484 533.878400
    116    122    126     1   112.3500484 533.878400
    119    116    122     1   111.0400475 552.288000
    122    123    132     1   111.0400475 552.288000
    122    126    129     1   111.0400475 552.288000
    123    122    126     1   112.3500484 533.878400
    123    132    136     1   111.0400475 529.694400
    126    129    135     1   111.0400475 529.694400
    129    135    303     1   115.1800491 558.982400
    129    135    137     1   123.2000528 564.003200
    132    136    330     1   115.1800491 558.982400
    132    136    138     1   123.2000528 564.003200
    135    303    305     1   120.6900519 530.531200
    136    330    332     1   120.6900519 530.531200
    137    135    303     1   123.0500530 620.905600
    138    136    330     1   123.0500530 620.905600
    141    143    145     1   111.6100477 551.451200
    143    145    149     1   111.0400475 552.288000
    145    149    150     1   112.3500484 533.878400
    145    149    151     1   112.3500484 533.878400
    149    150    162     1   111.0400475 552.288000
    149    151    153     1   111.0400475 552.288000
    150    149    151     1   112.3500484 533.878400
    150    162    165     1   111.0400475 529.694400
    151    153    157     1   111.0400475 529.694400
    153    157    158     1   123.2000528 564.003200
    153    157    159     1   123.2000528 564.003200
    158    157    159     1   130.2500561 651.867200
    162    165    166     1   123.2000528 564.003200
    162    165    167     1   123.2000528 564.003200
    166    165    167     1   130.2500561 651.867200
    168    170    172     1   111.6100477 551.451200
    170    172    176     1   111.0400475 552.288000
    172    176    177     1   112.3500484 533.878400
    172    176    178     1   112.3500484 533.878400
    176    177    189     1   111.0400475 552.288000
    176    178    180     1   111.0400475 552.288000
    177    189    192     1   111.0400475 529.694400
    177    176    178     1   112.3500484 533.878400
    178    180    184     1   111.0400475 529.694400
    180    184    185     1   123.2000528 564.003200
    180    184    186     1   123.2000528 564.003200
    185    184    186     1   130.2500561 651.867200
    189    192    193     1   123.2000528 564.003200
    189    192    194     1   123.2000528 564.003200
    193    192    194     1   130.2500561 651.867200
    195    197    199     1   111.6100477 551.451200
    197    199    203     1   111.0400475 552.288000
    199    203    204     1   112.3500484 533.878400
    199    203    205     1   112.3500484 533.878400
    203    204    216     1   111.0400475 552.288000
    203    205    207     1   111.0400475 552.288000
    204    203    205     1   112.3500484 533.878400
    204    216    219     1   111.0400475 529.694400
    205    207    211     1   111.0400475 529.694400
    207    211    212     1   123.2000528 564.003200
    207    211    213     1   123.2000528 564.003200
    212    211    213     1   130.2500561 651.867200
    216    219    220     1   123.2000528 564.003200
    216    219    221     1   123.2000528 564.003200
    220    219    221     1   130.2500561 651.867200
    222    224    226     1   111.6100477 551.451200
    224    226    230     1   111.0400475 552.288000
    226    230    231     1   112.3500484 533.878400
    226    230    232     1   112.3500484 533.878400
    230    231    243     1   111.0400475 552.288000
    230    232    234     1   111.0400475 552.288000
    231    243    246     1   111.0400475 529.694400
    231    230    232     1   112.3500484 533.878400
    232    234    238     1   111.0400475 529.694400
    234    238    239     1   123.2000528 564.003200
    234    238    240     1   123.2000528 564.003200
    239    238    240     1   130.2500561 651.867200
    243    246    247     1   123.2000528 564.003200
    243    246    248     1   123.2000528 564.003200
    247    246    248     1   130.2500561 651.867200
    249    251    253     1   111.6100477 551.451200
    251    253    257     1   111.0400475 552.288000
    253    257    258     1   112.3500484 533.878400
    253    257    259     1   112.3500484 533.878400
    257    258    270     1   111.0400475 552.288000
    257    259    261     1   111.0400475 552.288000
    258    257    259     1   112.3500484 533.878400
    258    270    273     1   111.0400475 529.694400
    259    261    265     1   111.0400475 529.694400
    261    265    266     1   123.2000528 564.003200
    261    265    267     1   123.2000528 564.003200
    266    265    267     1   130.2500561 651.867200
    270    273    274     1   123.2000528 564.003200
    270    273    275     1   123.2000528 564.003200
    274    273    275     1   130.2500561 651.867200
    276    278    280     1   111.6100477 551.451200
    278    280    284     1   111.0400475 552.288000
    280    284    285     1   112.3500484 533.878400
    280    284    286     1   112.3500484 533.878400
    284    285    297     1   111.0400475 552.288000
    284    286    288     1   111.0400475 552.288000
    285    297    300     1   111.0400475 529.694400
    285    284    286     1   112.3500484 533.878400
    286    288    292     1   111.0400475 529.694400
    288    292    293     1   123.2000528 564.003200
    288    292    294     1   123.2000528 564.003200
    293    292    294     1   130.2500561 651.867200
    297    300    301     1   123.2000528 564.003200
    297    300    302     1   123.2000528 564.003200
    301    300    302     1   130.2500561 651.867200
    303    305    307     1   111.6100477 551.451200
    305    307    311     1   111.0400475 552.288000
    307    311    312     1   112.3500484 533.878400
    307    311    313     1   112.3500484 533.878400
    311    312    324     1   111.0400475 552.288000
    311    313    315     1   111.0400475 552.288000
    312    311    313     1   112.3500484 533.878400
    312    324    327     1   111.0400475 529.694400
    313    315    319     1   111.0400475 529.694400
    315    319    320     1   123.2000528 564.003200
    315    319    321     1   123.2000528 564.003200
    320    319    321     1   130.2500561 651.867200
    324    327    328     1   123.2000528 564.003200
    324    327    329     1   123.2000528 564.003200
    328    327    329     1   130.2500561 651.867200
    330    332    334     1   111.6100477 551.451200
    332    334    338     1   111.0400475 552.288000
    334    338    339     1   112.3500484 533.878400
    334    338    340     1   112.3500484 533.878400
    338    339    351     1   111.0400475 552.288000
    338    340    342     1   111.0400475 552.288000
    339    351    354     1   111.0400475 529.694400
    339    338    340     1   112.3500484 533.878400
    340    342    346     1   111.0400475 529.694400
    342    346    347     1   123.2000528 564.003200
    342    346    348     1   123.2000528 564.003200
    347    346    348     1   130.2500561 651.867200
    351    354    355     1   123.2000528 564.003200
    351    354    356     1   123.2000528 564.003200
    355    354    356     1   130.2500561 651.867200
      1      4      5     1   109.5600471 388.275200
      1      4      6     1   109.5600471 388.275200
      2      1      4     1   109.5600471 388.275200
      2      1      8     1   109.8800469 414.216000
      2      1      3     1   108.4600466 328.025600
      3      1      4     1   109.5600471 388.275200
      3      1      8     1   109.8800469 414.216000
      5      4      7     1   109.8800469 414.216000
      5      4      6     1   108.4600466 328.025600
      6      4      7     1   109.8800469 414.216000
      7     15     16     1   109.8800469 414.216000
      7     15     17     1   109.8800469 414.216000
      7     18     19     1   109.8800469 414.216000
      7     18     20     1   109.8800469 414.216000
      8      9     10     1   109.8800469 414.216000
      8      9     11     1   109.8800469 414.216000
      8     12     13     1   109.8800469 414.216000
      8     12     14     1   109.8800469 414.216000
      9     30     31     1   109.8000471 387.438400
      9     30     32     1   109.8000471 387.438400
     10      9     30     1   109.5600471 388.275200
     10      9     11     1   108.4600466 328.025600
     11      9     30     1   109.5600471 388.275200
     12     27     28     1   109.8000471 387.438400
     12     27     29     1   109.8000471 387.438400
     13     12     27     1   109.5600471 388.275200
     13     12     14     1   108.4600466 328.025600
     14     12     27     1   109.5600471 388.275200
     15     21     22     1   109.8000471 387.438400
     15     21     23     1   109.8000471 387.438400
     16     15     21     1   109.5600471 388.275200
     16     15     17     1   108.4600466 328.025600
     17     15     21     1   109.5600471 388.275200
     18     24     25     1   109.8000471 387.438400
     18     24     26     1   109.8000471 387.438400
     19     18     24     1   109.5600471 388.275200
     19     18     20     1   108.4600466 328.025600
     20     18     24     1   109.5600471 388.275200
     22     21     35     1   108.7700466 392.459200
     22     21     23     1   107.5800459 329.699200
     23     21     35     1   108.7700466 392.459200
     25     24     36     1   108.7700466 392.459200
     25     24     26     1   107.5800459 329.699200
     26     24     36     1   108.7700466 392.459200
     28     27     33     1   108.7700466 392.459200
     28     27     29     1   107.5800459 329.699200
     29     27     33     1   108.7700466 392.459200
     31     30     34     1   108.7700466 392.459200
     31     30     32     1   107.5800459 329.699200
     32     30     34     1   108.7700466 392.459200
     33     64     65     1   117.5500507 404.174400
     34     89     90     1   117.5500507 404.174400
     35    114    115     1   117.5500507 404.174400
     36    139    140     1   117.5500507 404.174400
     41     44     45     1   109.5600471 388.275200
     41     44     46     1   109.5600471 388.275200
     42     41     44     1   109.5600471 388.275200
     42     41     47     1   109.8800469 414.216000
     42     41     43     1   108.4600466 328.025600
     43     41     44     1   109.5600471 388.275200
     43     41     47     1   109.8800469 414.216000
     44     64     65     1   117.6800502 383.254400
     45     44     64     1   108.8800464 416.726400
     45     44     46     1   108.4600466 328.025600
     46     44     64     1   108.8800464 416.726400
     47     48     49     1   109.8800469 414.216000
     47     48     50     1   109.8800469 414.216000
     47     51     52     1   109.8800469 414.216000
     47     51     53     1   109.8800469 414.216000
     48     57     58     1   109.8000471 387.438400
     48     57     59     1   109.8000471 387.438400
     49     48     57     1   109.5600471 388.275200
     49     48     50     1   108.4600466 328.025600
     50     48     57     1   109.5600471 388.275200
     51     54     55     1   109.8000471 387.438400
     51     54     56     1   109.8000471 387.438400
     52     51     54     1   109.5600471 388.275200
     52     51     53     1   108.4600466 328.025600
     53     51     54     1   109.5600471 388.275200
     55     54     60     1   108.7700466 392.459200
     55     54     56     1   107.5800459 329.699200
     56     54     60     1   108.7700466 392.459200
     58     57     61     1   108.7700466 392.459200
     58     57     59     1   107.5800459 329.699200
     59     57     61     1   108.7700466 392.459200
     60    141    142     1   117.5500507 404.174400
     61    168    169     1   117.5500507 404.174400
     66     69     70     1   109.5600471 388.275200
     66     69     71     1   109.5600471 388.275200
     67     66     69     1   109.5600471 388.275200
     67     66     72     1   109.8800469 414.216000
     67     66     68     1   108.4600466 328.025600
     68     66     69     1   109.5600471 388.275200
     68     66     72     1   109.8800469 414.216000
     69     89     90     1   117.6800502 383.254400
     70     69     89     1   108.8800464 416.726400
     70     69     71     1   108.4600466 328.025600
     71     69     89     1   108.8800464 416.726400
     72     73     74     1   109.8800469 414.216000
     72     73     75     1   109.8800469 414.216000
     72     76     77     1   109.8800469 414.216000
     72     76     78     1   109.8800469 414.216000
     73     82     83     1   109.8000471 387.438400
     73     82     84     1   109.8000471 387.438400
     74     73     82     1   109.5600471 388.275200
     74     73     75     1   108.4600466 328.025600
     75     73     82     1   109.5600471 388.275200
     76     79     80     1   109.8000471 387.438400
     76     79     81     1   109.8000471 387.438400
     77     76     79     1   109.5600471 388.275200
     77     76     78     1   108.4600466 328.025600
     78     76     79     1   109.5600471 388.275200
     80     79     85     1   108.7700466 392.459200
     80     79     81     1   107.5800459 329.699200
     81     79     85     1   108.7700466 392.459200
     83     82     86     1   108.7700466 392.459200
     83     82     84     1   107.5800459 329.699200
     84     82     86     1   108.7700466 392.459200
     85    195    196     1   117.5500507 404.174400
     86    222    223     1   117.5500507 404.174400
     91     94     95     1   109.5600471 388.275200
     91     94     96     1   109.5600471 388.275200
     92     91     94     1   109.5600471 388.275200
     92     91     97     1   109.8800469 414.216000
     92     91     93     1   108.4600466 328.025600
     93     91     94     1   109.5600471 388.275200
     93     91     97     1   109.8800469 414.216000
     94    114    115     1   117.6800502 383.254400
     95     94    114     1   108.8800464 416.726400
     95     94     96     1   108.4600466 328.025600
     96     94    114     1   108.8800464 416.726400
     97     98     99     1   109.8800469 414.216000
     97     98    100     1   109.8800469 414.216000
     97    101    102     1   109.8800469 414.216000
     97    101    103     1   109.8800469 414.216000
     98    107    108     1   109.8000471 387.438400
     98    107    109     1   109.8000471 387.438400
     99     98    107     1   109.5600471 388.275200
     99     98    100     1   108.4600466 328.025600
    100     98    107     1   109.5600471 388.275200
    101    104    105     1   109.8000471 387.438400
    101    104    106     1   109.8000471 387.438400
    102    101    104     1   109.5600471 388.275200
    102    101    103     1   108.4600466 328.025600
    103    101    104     1   109.5600471 388.275200
    105    104    110     1   108.7700466 392.459200
    105    104    106     1   107.5800459 329.699200
    106    104    110     1   108.7700466 392.459200
    108    107    111     1   108.7700466 392.459200
    108    107    109     1   107.5800459 329.699200
    109    107    111     1   108.7700466 392.459200
    110    249    250     1   117.5500507 404.174400
    111    276    277     1   117.5500507 404.174400
    116    119    120     1   109.5600471 388.275200
    116    119    121     1   109.5600471 388.275200
    117    116    119     1   109.5600471 388.275200
    117    116    122     1   109.8800469 414.216000
    117    116    118     1   108.4600466 328.025600
    118    116    119     1   109.5600471 388.275200
    118    116    122     1   109.8800469 414.216000
    119    139    140     1   117.6800502 383.254400
    120    119    139     1   108.8800464 416.726400
    120    119    121     1   108.4600466 328.025600
    121    119    139     1   108.8800464 416.726400
    122    123    124     1   109.8800469 414.216000
    122    123    125     1   109.8800469 414.216000
    122    126    127     1   109.8800469 414.216000
    122    126    128     1   109.8800469 414.216000
    123    132    133     1   109.8000471 387.438400
    123    132    134     1   109.8000471 387.438400
    124    123    132     1   109.5600471 388.275200
    124    123    125     1   108.4600466 328.025600
    125    123    132     1   109.5600471 388.275200
    126    129    130     1   109.8000471 387.438400
    126    129    131     1   109.8000471 387.438400
    127    126    129     1   109.5600471 388.275200
    127    126    128     1   108.4600466 328.025600
    128    126    129     1   109.5600471 388.275200
    130    129    135     1   108.7700466 392.459200
    130    129    131     1   107.5800459 329.699200
    131    129    135     1   108.7700466 392.459200
    133    132    136     1   108.7700466 392.459200
    133    132    134     1   107.5800459 329.699200
    134    132    136     1   108.7700466 392.459200
    135    303    304     1   117.5500507 404.174400
    136    330    331     1   117.5500507 404.174400
    141    143    144     1   108.8800464 416.726400
    141    143    146     1   108.8800464 416.726400
    142    141    143     1   117.6800502 383.254400
    143    145    147     1   109.5600471 388.275200
    143    145    148     1   109.5600471 388.275200
    144    143    145     1   109.5600471 388.275200
    144    143    146     1   108.4600466 328.025600
    145    143    146     1   109.5600471 388.275200
    147    145    149     1   109.8800469 414.216000
    147    145    148     1   108.4600466 328.025600
    148    145    149     1   109.8800469 414.216000
    149    150    160     1   109.8800469 414.216000
    149    150    161     1   109.8800469 414.216000
    149    151    152     1   109.8800469 414.216000
    149    151    154     1   109.8800469 414.216000
    150    162    163     1   109.8000471 387.438400
    150    162    164     1   109.8000471 387.438400
    151    153    155     1   109.8000471 387.438400
    151    153    156     1   109.8000471 387.438400
    152    151    153     1   109.5600471 388.275200
    152    151    154     1   108.4600466 328.025600
    153    151    154     1   109.5600471 388.275200
    155    153    157     1   108.7700466 392.459200
    155    153    156     1   107.5800459 329.699200
    156    153    157     1   108.7700466 392.459200
    160    150    162     1   109.5600471 388.275200
    160    150    161     1   108.4600466 328.025600
    161    150    162     1   109.5600471 388.275200
    163    162    165     1   108.7700466 392.459200
    163    162    164     1   107.5800459 329.699200
    164    162    165     1   108.7700466 392.459200
    168    170    171     1   108.8800464 416.726400
    168    170    173     1   108.8800464 416.726400
    169    168    170     1   117.6800502 383.254400
    170    172    174     1   109.5600471 388.275200
    170    172    175     1   109.5600471 388.275200
    171    170    172     1   109.5600471 388.275200
    171    170    173     1   108.4600466 328.025600
    172    170    173     1   109.5600471 388.275200
    174    172    176     1   109.8800469 414.216000
    174    172    175     1   108.4600466 328.025600
    175    172    176     1   109.8800469 414.216000
    176    177    187     1   109.8800469 414.216000
    176    177    188     1   109.8800469 414.216000
    176    178    179     1   109.8800469 414.216000
    176    178    181     1   109.8800469 414.216000
    177    189    190     1   109.8000471 387.438400
    177    189    191     1   109.8000471 387.438400
    178    180    182     1   109.8000471 387.438400
    178    180    183     1   109.8000471 387.438400
    179    178    180     1   109.5600471 388.275200
    179    178    181     1   108.4600466 328.025600
    180    178    181     1   109.5600471 388.275200
    182    180    184     1   108.7700466 392.459200
    182    180    183     1   107.5800459 329.699200
    183    180    184     1   108.7700466 392.459200
    187    177    189     1   109.5600471 388.275200
    187    177    188     1   108.4600466 328.025600
    188    177    189     1   109.5600471 388.275200
    190    189    192     1   108.7700466 392.459200
    190    189    191     1   107.5800459 329.699200
    191    189    192     1   108.7700466 392.459200
    195    197    198     1   108.8800464 416.726400
    195    197    200     1   108.8800464 416.726400
    196    195    197     1   117.6800502 383.254400
    197    199    201     1   109.5600471 388.275200
    197    199    202     1   109.5600471 388.275200
    198    197    199     1   109.5600471 388.275200
    198    197    200     1   108.4600466 328.025600
    199    197    200     1   109.5600471 388.275200
    201    199    203     1   109.8800469 414.216000
    201    199    202     1   108.4600466 328.025600
    202    199    203     1   109.8800469 414.216000
    203    204    214     1   109.8800469 414.216000
    203    204    215     1   109.8800469 414.216000
    203    205    206     1   109.8800469 414.216000
    203    205    208     1   109.8800469 414.216000
    204    216    217     1   109.8000471 387.438400
    204    216    218     1   109.8000471 387.438400
    205    207    209     1   109.8000471 387.438400
    205    207    210     1   109.8000471 387.438400
    206    205    207     1   109.5600471 388.275200
    206    205    208     1   108.4600466 328.025600
    207    205    208     1   109.5600471 388.275200
    209    207    211     1   108.7700466 392.459200
    209    207    210     1   107.5800459 329.699200
    210    207    211     1   108.7700466 392.459200
    214    204    216     1   109.5600471 388.275200
    214    204    215     1   108.4600466 328.025600
    215    204    216     1   109.5600471 388.275200
    217    216    219     1   108.7700466 392.459200
    217    216    218     1   107.5800459 329.699200
    218    216    219     1   108.7700466 392.459200
    222    224    225     1   108.8800464 416.726400
    222    224    227     1   108.8800464 416.726400
    223    222    224     1   117.6800502 383.254400
    224    226    228     1   109.5600471 388.275200
    224    226    229     1   109.5600471 388.275200
    225    224    226     1   109.5600471 388.275200
    225    224    227     1   108.4600466 328.025600
    226    224    227     1   109.5600471 388.275200
    228    226    230     1   109.8800469 414.216000
    228    226    229     1   108.4600466 328.025600
    229    226    230     1   109.8800469 414.216000
    230    231    241     1   109.8800469 414.216000
    230    231    242     1   109.8800469 414.216000
    230    232    233     1   109.8800469 414.216000
    230    232    235     1   109.8800469 414.216000
    231    243    244     1   109.8000471 387.438400
    231    243    245     1   109.8000471 387.438400
    232    234    236     1   109.8000471 387.438400
    232    234    237     1   109.8000471 387.438400
    233    232    234     1   109.5600471 388.275200
    233    232    235     1   108.4600466 328.025600
    234    232    235     1   109.5600471 388.275200
    236    234    238     1   108.7700466 392.459200
    236    234    237     1   107.5800459 329.699200
    237    234    238     1   108.7700466 392.459200
    241    231    243     1   109.5600471 388.275200
    241    231    242     1   108.4600466 328.025600
    242    231    243     1   109.5600471 388.275200
    244    243    246     1   108.7700466 392.459200
    244    243    245     1   107.5800459 329.699200
    245    243    246     1   108.7700466 392.459200
    249    251    252     1   108.8800464 416.726400
    249    251    254     1   108.8800464 416.726400
    250    249    251     1   117.6800502 383.254400
    251    253    255     1   109.5600471 388.275200
    251    253    256     1   109.5600471 388.275200
    252    251    253     1   109.5600471 388.275200
    252    251    254     1   108.4600466 328.025600
    253    251    254     1   109.5600471 388.275200
    255    253    257     1   109.8800469 414.216000
    255    253    256     1   108.4600466 328.025600
    256    253    257     1   109.8800469 414.216000
    257    258    268     1   109.8800469 414.216000
    257    258    269     1   109.8800469 414.216000
    257    259    260     1   109.8800469 414.216000
    257    259    262     1   109.8800469 414.216000
    258    270    271     1   109.8000471 387.438400
    258    270    272     1   109.8000471 387.438400
    259    261    263     1   109.8000471 387.438400
    259    261    264     1   109.8000471 387.438400
    260    259    261     1   109.5600471 388.275200
    260    259    262     1   108.4600466 328.025600
    261    259    262     1   109.5600471 388.275200
    263    261    265     1   108.7700466 392.459200
    263    261    264     1   107.5800459 329.699200
    264    261    265     1   108.7700466 392.459200
    268    258    270     1   109.5600471 388.275200
    268    258    269     1   108.4600466 328.025600
    269    258    270     1   109.5600471 388.275200
    271    270    273     1   108.7700466 392.459200
    271    270    272     1   107.5800459 329.699200
    272    270    273     1   108.7700466 392.459200
    276    278    279     1   108.8800464 416.726400
    276    278    281     1   108.8800464 416.726400
    277    276    278     1   117.6800502 383.254400
    278    280    282     1   109.5600471 388.275200
    278    280    283     1   109.5600471 388.275200
    279    278    280     1   109.5600471 388.275200
    279    278    281     1   108.4600466 328.025600
    280    278    281     1   109.5600471 388.275200
    282    280    284     1   109.8800469 414.216000
    282    280    283     1   108.4600466 328.025600
    283    280    284     1   109.8800469 414.216000
    284    285    295     1   109.8800469 414.216000
    284    285    296     1   109.8800469 414.216000
    284    286    287     1   109.8800469 414.216000
    284    286    289     1   109.8800469 414.216000
    285    297    298     1   109.8000471 387.438400
    285    297    299     1   109.8000471 387.438400
    286    288    290     1   109.8000471 387.438400
    286    288    291     1   109.8000471 387.438400
    287    286    288     1   109.5600471 388.275200
    287    286    289     1   108.4600466 328.025600
    288    286    289     1   109.5600471 388.275200
    290    288    292     1   108.7700466 392.459200
    290    288    291     1   107.5800459 329.699200
    291    288    292     1   108.7700466 392.459200
    295    285    297     1   109.5600471 388.275200
    295    285    296     1   108.4600466 328.025600
    296    285    297     1   109.5600471 388.275200
    298    297    300     1   108.7700466 392.459200
    298    297    299     1   107.5800459 329.699200
    299    297    300     1   108.7700466 392.459200
    303    305    306     1   108.8800464 416.726400
    303    305    308     1   108.8800464 416.726400
    304    303    305     1   117.6800502 383.254400
    305    307    309     1   109.5600471 388.275200
    305    307    310     1   109.5600471 388.275200
    306    305    307     1   109.5600471 388.275200
    306    305    308     1   108.4600466 328.025600
    307    305    308     1   109.5600471 388.275200
    309    307    311     1   109.8800469 414.216000
    309    307    310     1   108.4600466 328.025600
    310    307    311     1   109.8800469 414.216000
    311    312    322     1   109.8800469 414.216000
    311    312    323     1   109.8800469 414.216000
    311    313    314     1   109.8800469 414.216000
    311    313    316     1   109.8800469 414.216000
    312    324    325     1   109.8000471 387.438400
    312    324    326     1   109.8000471 387.438400
    313    315    317     1   109.8000471 387.438400
    313    315    318     1   109.8000471 387.438400
    314    313    315     1   109.5600471 388.275200
    314    313    316     1   108.4600466 328.025600
    315    313    316     1   109.5600471 388.275200
    317    315    319     1   108.7700466 392.459200
    317    315    318     1   107.5800459 329.699200
    318    315    319     1   108.7700466 392.459200
    322    312    324     1   109.5600471 388.275200
    322    312    323     1   108.4600466 328.025600
    323    312    324     1   109.5600471 388.275200
    325    324    327     1   108.7700466 392.459200
    325    324    326     1   107.5800459 329.699200
    326    324    327     1   108.7700466 392.459200
    330    332    333     1   108.8800464 416.726400
    330    332    335     1   108.8800464 416.726400
    331    330    332     1   117.6800502 383.254400
    332    334    336     1   109.5600471 388.275200
    332    334    337     1   109.5600471 388.275200
    333    332    334     1   109.5600471 388.275200
    333    332    335     1   108.4600466 328.025600
    334    332    335     1   109.5600471 388.275200
    336    334    338     1   109.8800469 414.216000
    336    334    337     1   108.4600466 328.025600
    337    334    338     1   109.8800469 414.216000
    338    339    349     1   109.8800469 414.216000
    338    339    350     1   109.8800469 414.216000
    338    340    341     1   109.8800469 414.216000
    338    340    343     1   109.8800469 414.216000
    339    351    352     1   109.8000471 387.438400
    339    351    353     1   109.8000471 387.438400
    340    342    344     1   109.8000471 387.438400
    340    342    345     1   109.8000471 387.438400
    341    340    342     1   109.5600471 388.275200
    341    340    343     1   108.4600466 328.025600
    342    340    343     1   109.5600471 388.275200
    344    342    346     1   108.7700466 392.459200
    344    342    345     1   107.5800459 329.699200
    345    342    346     1   108.7700466 392.459200
    349    339    351     1   109.5600471 388.275200
    349    339    350     1   108.4600466 328.025600
    350    339    351     1   109.5600471 388.275200
    352    351    354     1   108.7700466 392.459200
    352    351    353     1   107.5800459 329.699200
    353    351    354     1   108.7700466 392.459200

[ dihedrals ]
;    ai     aj     ak     al funct         c0         c1         c2         c3         c4         c5
      1      4      7     15     1  180.0000771  2.0083200  2
      1      4      7     15     1  0.0000000  1.2552000  3
      1      4      7     18     1  180.0000771  2.0083200  2
      1      4      7     18     1  0.0000000  1.2552000  3
      1      8      9     30     1  180.0000771  2.0083200  2
      1      8      9     30     1  0.0000000  1.2552000  3
      1      8     12     27     1  180.0000771  2.0083200  2
      1      8     12     27     1  0.0000000  1.2552000  3
      4      1      8      9     1  180.0000771  2.0083200  2
      4      1      8      9     1  0.0000000  1.2552000  3
      4      1      8     12     1  180.0000771  2.0083200  2
      4      1      8     12     1  0.0000000  1.2552000  3
      4      7     15     21     1  180.0000771  2.0083200  2
      4      7     15     21     1  0.0000000  1.2552000  3
      4      7     18     24     1  180.0000771  2.0083200  2
      4      7     18     24     1  0.0000000  1.2552000  3
      8      1      4      7     1  0.0000000  0.6508444  3
      7     15     21     35     1  0.0000000  0.6508444  3
      7     18     24     36     1  0.0000000  0.6508444  3
      8      9     30     34     1  0.0000000  0.6508444  3
      8     12     27     33     1  0.0000000  0.6508444  3
      9      8     12     27     1  180.0000771  2.0083200  2
      9      8     12     27     1  0.0000000  1.2552000  3
      9     30     34     40     1  180.0000771  0.0000000  2
      9     30     34     89     1  0.0000000  0.2928800  2
      9     30     34     89     1  0.0000000  0.4184000  4
     12      8      9     30     1  180.0000771  2.0083200  2
     12      8      9     30     1  0.0000000  1.2552000  3
     12     27     33     37     1  180.0000771  0.0000000  2
     12     27     33     64     1  0.0000000  0.2928800  2
     12     27     33     64     1  0.0000000  0.4184000  4
     15      7     18     24     1  180.0000771  2.0083200  2
     15      7     18     24     1  0.0000000  1.2552000  3
     15     21     35     38     1  180.0000771  0.0000000  2
     15     21     35    114     1  0.0000000  0.2928800  2
     15     21     35    114     1  0.0000000  0.4184000  4
     18      7     15     21     1  180.0000771  2.0083200  2
     18      7     15     21     1  0.0000000  1.2552000  3
     18     24     36     39     1  180.0000771  0.0000000  2
     18     24     36    139     1  0.0000000  0.2928800  2
     18     24     36    139     1  0.0000000  0.4184000  4
     21     35    114     94     1  180.0000771  6.2760000  1
     21     35    114     94     1  0.0000000  0.0000000  2
     24     36    139    119     1  180.0000771  6.2760000  1
     24     36    139    119     1  0.0000000  0.0000000  2
     27     33     64     44     1  180.0000771  6.2760000  1
     27     33     64     44     1  0.0000000  0.0000000  2
     30     34     89     69     1  180.0000771  6.2760000  1
     30     34     89     69     1  0.0000000  0.0000000  2
     33     64     44     41     1  0.0000000  2.2175200  1
     33     64     44     41     1  0.0000000  0.0000000  2
     33     64     44     41     1  180.0000771  0.6276000  3
     33     64     44     41     1  180.0000771  2.0920000  4
     34     89     69     66     1  0.0000000  2.2175200  1
     34     89     69     66     1  0.0000000  0.0000000  2
     34     89     69     66     1  180.0000771  0.6276000  3
     34     89     69     66     1  180.0000771  2.0920000  4
     35    114     94     91     1  0.0000000  2.2175200  1
     35    114     94     91     1  0.0000000  0.0000000  2
     35    114     94     91     1  180.0000771  0.6276000  3
     35    114     94     91     1  180.0000771  2.0920000  4
     36    139    119    116     1  0.0000000  2.2175200  1
     36    139    119    116     1  0.0000000  0.0000000  2
     36    139    119    116     1  180.0000771  0.6276000  3
     36    139    119    116     1  180.0000771  2.0920000  4
     37     33     64     44     1  180.0000771  10.4600000  2
     38     35    114     94     1  180.0000771  10.4600000  2
     39     36    139    119     1  180.0000771  10.4600000  2
     40     34     89     69     1  180.0000771  10.4600000  2
     41     47     48     57     1  180.0000771  2.0083200  2
     41     47     48     57     1  0.0000000  1.2552000  3
     41     47     51     54     1  180.0000771  2.0083200  2
     41     47     51     54     1  0.0000000  1.2552000  3
     44     41     47     48     1  180.0000771  2.0083200  2
     44     41     47     48     1  0.0000000  1.2552000  3
     44     41     47     51     1  180.0000771  2.0083200  2
     44     41     47     51     1  0.0000000  1.2552000  3
     47     41     44     64     1  0.0000000  0.6508444  3
     47     48     57     61     1  0.0000000  0.6508444  3
     47     51     54     60     1  0.0000000  0.6508444  3
     48     47     51     54     1  180.0000771  2.0083200  2
     48     47     51     54     1  0.0000000  1.2552000  3
     48     57     61     63     1  180.0000771  0.0000000  2
     48     57     61    168     1  0.0000000  0.2928800  2
     48     57     61    168     1  0.0000000  0.4184000  4
     51     47     48     57     1  180.0000771  2.0083200  2
     51     47     48     57     1  0.0000000  1.2552000  3
     51     54     60    141     1  0.0000000  0.2928800  2
     51     54     60    141     1  0.0000000  0.4184000  4
     51     54     60     62     1  180.0000771  0.0000000  2
     54     60    141    143     1  180.0000771  6.2760000  1
     54     60    141    143     1  0.0000000  0.0000000  2
     57     61    168    170     1  180.0000771  6.2760000  1
     57     61    168    170     1  0.0000000  0.0000000  2
     60    141    143    145     1  0.0000000  2.2175200  1
     60    141    143    145     1  0.0000000  0.0000000  2
     60    141    143    145     1  180.0000771  0.6276000  3
     60    141    143    145     1  180.0000771  2.0920000  4
     61    168    170    172     1  0.0000000  2.2175200  1
     61    168    170    172     1  0.0000000  0.0000000  2
     61    168    170    172     1  180.0000771  0.6276000  3
     61    168    170    172     1  180.0000771  2.0920000  4
     62     60    141    143     1  180.0000771  10.4600000  2
     63     61    168    170     1  180.0000771  10.4600000  2
     66     72     73     82     1  180.0000771  2.0083200  2
     66     72     73     82     1  0.0000000  1.2552000  3
     66     72     76     79     1  180.0000771  2.0083200  2
     66     72     76     79     1  0.0000000  1.2552000  3
     69     66     72     73     1  180.0000771  2.0083200  2
     69     66     72     73     1  0.0000000  1.2552000  3
     69     66     72     76     1  180.0000771  2.0083200  2
     69     66     72     76     1  0.0000000  1.2552000  3
     72     66     69     89     1  0.0000000  0.6508444  3
     72     73     82     86     1  0.0000000  0.6508444  3
     72     76     79     85     1  0.0000000  0.6508444  3
     73     72     76     79     1  180.0000771  2.0083200  2
     73     72     76     79     1  0.0000000  1.2552000  3
     73     82     86     88     1  180.0000771  0.0000000  2
     73     82     86    222     1  0.0000000  0.2928800  2
     73     82     86    222     1  0.0000000  0.4184000  4
     76     72     73     82     1  180.0000771  2.0083200  2
     76     72     73     82     1  0.0000000  1.2552000  3
     76     79     85    195     1  0.0000000  0.2928800  2
     76     79     85    195     1  0.0000000  0.4184000  4
     76     79     85     87     1  180.0000771  0.0000000  2
     79     85    195    197     1  180.0000771  6.2760000  1
     79     85    195    197     1  0.0000000  0.0000000  2
     82     86    222    224     1  180.0000771  6.2760000  1
     82     86    222    224     1  0.0000000  0.0000000  2
     85    195    197    199     1  0.0000000  2.2175200  1
     85    195    197    199     1  0.0000000  0.0000000  2
     85    195    197    199     1  180.0000771  0.6276000  3
     85    195    197    199     1  180.0000771  2.0920000  4
     86    222    224    226     1  0.0000000  2.2175200  1
     86    222    224    226     1  0.0000000  0.0000000  2
     86    222    224    226     1  180.0000771  0.6276000  3
     86    222    224    226     1  180.0000771  2.0920000  4
     87     85    195    197     1  180.0000771  10.4600000  2
     88     86    222    224     1  180.0000771  10.4600000  2
     91     97     98    107     1  180.0000771  2.0083200  2
     91     97     98    107     1  0.0000000  1.2552000  3
     91     97    101    104     1  180.0000771  2.0083200  2
     91     97    101    104     1  0.0000000  1.2552000  3
     94     91     97     98     1  180.0000771  2.0083200  2
     94     91     97     98     1  0.0000000  1.2552000  3
     94     91     97    101     1  180.0000771  2.0083200  2
     94     91     97    101     1  0.0000000  1.2552000  3
     97     91     94    114     1  0.0000000  0.6508444  3
     97     98    107    111     1  0.0000000  0.6508444  3
     97    101    104    110     1  0.0000000  0.6508444  3
     98     97    101    104     1  180.0000771  2.0083200  2
     98     97    101    104     1  0.0000000  1.2552000  3
     98    107    111    113     1  180.0000771  0.0000000  2
     98    107    111    276     1  0.0000000  0.2928800  2
     98    107    111    276     1  0.0000000  0.4184000  4
    101     97     98    107     1  180.0000771  2.0083200  2
    101     97     98    107     1  0.0000000  1.2552000  3
    101    104    110    249     1  0.0000000  0.2928800  2
    101    104    110    249     1  0.0000000  0.4184000  4
    101    104    110    112     1  180.0000771  0.0000000  2
    104    110    249    251     1  180.0000771  6.2760000  1
    104    110    249    251     1  0.0000000  0.0000000  2
    107    111    276    278     1  180.0000771  6.2760000  1
    107    111    276    278     1  0.0000000  0.0000000  2
    110    249    251    253     1  0.0000000  2.2175200  1
    110    249    251    253     1  0.0000000  0.0000000  2
    110    249    251    253     1  180.0000771  0.6276000  3
    110    249    251    253     1  180.0000771  2.0920000  4
    111    276    278    280     1  0.0000000  2.2175200  1
    111    276    278    280     1  0.0000000  0.0000000  2
    111    276    278    280     1  180.0000771  0.6276000  3
    111    276    278    280     1  180.0000771  2.0920000  4
    112    110    249    251     1  180.0000771  10.4600000  2
    113    111    276    278     1  180.0000771  10.4600000  2
    116    122    123    132     1  180.0000771  2.0083200  2
    116    122    123    132     1  0.0000000  1.2552000  3
    116    122    126    129     1  180.0000771  2.0083200  2
    116    122    126    129     1  0.0000000  1.2552000  3
    119    116    122    123     1  180.0000771  2.0083200  2
    119    116    122    123     1  0.0000000  1.2552000  3
    119    116    122    126     1  180.0000771  2.0083200  2
    119    116    122    126     1  0.0000000  1.2552000  3
    122    116    119    139     1  0.0000000  0.6508444  3
    122    123    132    136     1  0.0000000  0.6508444  3
    122    126    129    135     1  0.0000000  0.6508444  3
    123    122    126    129     1  180.0000771  2.0083200  2
    123    122    126    129     1  0.0000000  1.2552000  3
    123    132    136    330     1  0.0000000  0.2928800  2
    123    132    136    330     1  0.0000000  0.4184000  4
    123    132    136    138     1  180.0000771  0.0000000  2
    126    122    123    132     1  180.0000771  2.0083200  2
    126    122    123    132     1  0.0000000  1.2552000  3
    126    129    135    303     1  0.0000000  0.2928800  2
    126    129    135    303     1  0.0000000  0.4184000  4
    126    129    135    137     1  180.0000771  0.0000000  2
    129    135    303    305     1  180.0000771  6.2760000  1
    129    135    303    305     1  0.0000000  0.0000000  2
    132    136    330    332     1  180.0000771  6.2760000  1
    132    136    330    332     1  0.0000000  0.0000000  2
    135    303    305    307     1  0.0000000  2.2175200  1
    135    303    305    307     1  0.0000000  0.0000000  2
    135    303    305    307     1  180.0000771  0.6276000  3
    135    303    305    307     1  180.0000771  2.0920000  4
    136    330    332    334     1  0.0000000  2.2175200  1
    136    330    332    334     1  0.0000000  0.0000000  2
    136    330    332    334     1  180.0000771  0.6276000  3
    136    330    332    334     1  180.0000771  2.0920000  4
    137    135    303    305     1  180.0000771  10.4600000  2
    138    136    330    332     1  180.0000771  10.4600000  2
    141    143    145    149     1  0.0000000  0.6508444  3
    143    145    149    150     1  180.0000771  2.0083200  2
    143    145    149    150     1  0.0000000  1.2552000  3
    143    145    149    151     1  180.0000771  2.0083200  2
    143    145    149    151     1  0.0000000  1.2552000  3
    145    149    150    162     1  180.0000771  2.0083200  2
    145    149    150    162     1  0.0000000  1.2552000  3
    145    149    151    153     1  180.0000771  2.0083200  2
    145    149    151    153     1  0.0000000  1.2552000  3
    149    150    162    165     1  0.0000000  0.6508444  3
    149    151    153    157     1  0.0000000  0.6508444  3
    150    149    151    153     1  180.0000771  2.0083200  2
    150    149    151    153     1  0.0000000  1.2552000  3
    150    162    165    166     1  180.0000771  0.0000000  2
    150    162    165    167     1  180.0000771  0.0000000  2
    151    149    150    162     1  180.0000771  2.0083200  2
    151    149    150    162     1  0.0000000  1.2552000  3
    151    153    157    158     1  180.0000771  0.0000000  2
    151    153    157    159     1  180.0000771  0.0000000  2
    168    170    172    176     1  0.0000000  0.6508444  3
    170    172    176    177     1  180.0000771  2.0083200  2
    170    172    176    177     1  0.0000000  1.2552000  3
    170    172    176    178     1  180.0000771  2.0083200  2
    170    172    176    178     1  0.0000000  1.2552000  3
    172    176    177    189     1  180.0000771  2.0083200  2
    172    176    177    189     1  0.0000000  1.2552000  3
    172    176    178    180     1  180.0000771  2.0083200  2
    172    176    178    180     1  0.0000000  1.2552000  3
    176    177    189    192     1  0.0000000  0.6508444  3
    176    178    180    184     1  0.0000000  0.6508444  3
    177    189    192    193     1  180.0000771  0.0000000  2
    177    189    192    194     1  180.0000771  0.0000000  2
    177    176    178    180     1  180.0000771  2.0083200  2
    177    176    178    180     1  0.0000000  1.2552000  3
    178    180    184    185     1  180.0000771  0.0000000  2
    178    180    184    186     1  180.0000771  0.0000000  2
    178    176    177    189     1  180.0000771  2.0083200  2
    178    176    177    189     1  0.0000000  1.2552000  3
    195    197    199    203     1  0.0000000  0.6508444  3
    197    199    203    204     1  180.0000771  2.0083200  2
    197    199    203    204     1  0.0000000  1.2552000  3
    197    199    203    205     1  180.0000771  2.0083200  2
    197    199    203    205     1  0.0000000  1.2552000  3
    199    203    204    216     1  180.0000771  2.0083200  2
    199    203    204    216     1  0.0000000  1.2552000  3
    199    203    205    207     1  180.0000771  2.0083200  2
    199    203    205    207     1  0.0000000  1.2552000  3
    203    204    216    219     1  0.0000000  0.6508444  3
    203    205    207    211     1  0.0000000  0.6508444  3
    204    203    205    207     1  180.0000771  2.0083200  2
    204    203    205    207     1  0.0000000  1.2552000  3
    204    216    219    220     1  180.0000771  0.0000000  2
    204    216    219    221     1  180.0000771  0.0000000  2
    205    203    204    216     1  180.0000771  2.0083200  2
    205    203    204    216     1  0.0000000  1.2552000  3
    205    207    211    212     1  180.0000771  0.0000000  2
    205    207    211    213     1  180.0000771  0.0000000  2
    222    224    226    230     1  0.0000000  0.6508444  3
    224    226    230    231     1  180.0000771  2.0083200  2
    224    226    230    231     1  0.0000000  1.2552000  3
    224    226    230    232     1  180.0000771  2.0083200  2
    224    226    230    232     1  0.0000000  1.2552000  3
    226    230    231    243     1  180.0000771  2.0083200  2
    226    230    231    243     1  0.0000000  1.2552000  3
    226    230    232    234     1  180.0000771  2.0083200  2
    226    230    232    234     1  0.0000000  1.2552000  3
    230    231    243    246     1  0.0000000  0.6508444  3
    230    232    234    238     1  0.0000000  0.6508444  3
    231    243    246    247     1  180.0000771  0.0000000  2
    231    243    246    248     1  180.0000771  0.0000000  2
    231    230    232    234     1  180.0000771  2.0083200  2
    231    230    232    234     1  0.0000000  1.2552000  3
    232    234    238    239     1  180.0000771  0.0000000  2
    232    234    238    240     1  180.0000771  0.0000000  2
    232    230    231    243     1  180.0000771  2.0083200  2
    232    230    231    243     1  0.0000000  1.2552000  3
    249    251    253    257     1  0.0000000  0.6508444  3
    251    253    257    258     1  180.0000771  2.0083200  2
    251    253    257    258     1  0.0000000  1.2552000  3
    251    253    257    259     1  180.0000771  2.0083200  2
    251    253    257    259     1  0.0000000  1.2552000  3
    253    257    258    270     1  180.0000771  2.0083200  2
    253    257    258    270     1  0.0000000  1.2552000  3
    253    257    259    261     1  180.0000771  2.0083200  2
    253    257    259    261     1  0.0000000  1.2552000  3
    257    258    270    273     1  0.0000000  0.6508444  3
    257    259    261    265     1  0.0000000  0.6508444  3
    258    257    259    261     1  180.0000771  2.0083200  2
    258    257    259    261     1  0.0000000  1.2552000  3
    258    270    273    274     1  180.0000771  0.0000000  2
    258    270    273    275     1  180.0000771  0.0000000  2
    259    257    258    270     1  180.0000771  2.0083200  2
    259    257    258    270     1  0.0000000  1.2552000  3
    259    261    265    266     1  180.0000771  0.0000000  2
    259    261    265    267     1  180.0000771  0.0000000  2
    276    278    280    284     1  0.0000000  0.6508444  3
    278    280    284    285     1  180.0000771  2.0083200  2
    278    280    284    285     1  0.0000000  1.2552000  3
    278    280    284    286     1  180.0000771  2.0083200  2
    278    280    284    286     1  0.0000000  1.2552000  3
    280    284    285    297     1  180.0000771  2.0083200  2
    280    284    285    297     1  0.0000000  1.2552000  3
    280    284    286    288     1  180.0000771  2.0083200  2
    280    284    286    288     1  0.0000000  1.2552000  3
    284    285    297    300     1  0.0000000  0.6508444  3
    284    286    288    292     1  0.0000000  0.6508444  3
    285    297    300    301     1  180.0000771  0.0000000  2
    285    297    300    302     1  180.0000771  0.0000000  2
    285    284    286    288     1  180.0000771  2.0083200  2
    285    284    286    288     1  0.0000000  1.2552000  3
    286    288    292    293     1  180.0000771  0.0000000  2
    286    288    292    294     1  180.0000771  0.0000000  2
    286    284    285    297     1  180.0000771  2.0083200  2
    286    284    285    297     1  0.0000000  1.2552000  3
    303    305    307    311     1  0.0000000  0.6508444  3
    305    307    311    312     1  180.0000771  2.0083200  2
    305    307    311    312     1  0.0000000  1.2552000  3
    305    307    311    313     1  180.0000771  2.0083200  2
    305    307    311    313     1  0.0000000  1.2552000  3
    307    311    312    324     1  180.0000771  2.0083200  2
    307    311    312    324     1  0.0000000  1.2552000  3
    307    311    313    315     1  180.0000771  2.0083200  2
    307    311    313    315     1  0.0000000  1.2552000  3
    311    312    324    327     1  0.0000000  0.6508444  3
    311    313    315    319     1  0.0000000  0.6508444  3
    312    311    313    315     1  180.0000771  2.0083200  2
    312    311    313    315     1  0.0000000  1.2552000  3
    312    324    327    328     1  180.0000771  0.0000000  2
    312    324    327    329     1  180.0000771  0.0000000  2
    313    311    312    324     1  180.0000771  2.0083200  2
    313    311    312    324     1  0.0000000  1.2552000  3
    313    315    319    320     1  180.0000771  0.0000000  2
    313    315    319    321     1  180.0000771  0.0000000  2
    330    332    334    338     1  0.0000000  0.6508444  3
    332    334    338    339     1  180.0000771  2.0083200  2
    332    334    338    339     1  0.0000000  1.2552000  3
    332    334    338    340     1  180.0000771  2.0083200  2
    332    334    338    340     1  0.0000000  1.2552000  3
    334    338    339    351     1  180.0000771  2.0083200  2
    334    338    339    351     1  0.0000000  1.2552000  3
    334    338    340    342     1  180.0000771  2.0083200  2
    334    338    340    342     1  0.0000000  1.2552000  3
    338    339    351    354     1  0.0000000  0.6508444  3
    338    340    342    346     1  0.0000000  0.6508444  3
    339    351    354    355     1  180.0000771  0.0000000  2
    339    351    354    356     1  180.0000771  0.0000000  2
    339    338    340    342     1  180.0000771  2.0083200  2
    339    338    340    342     1  0.0000000  1.2552000  3
    340    342    346    347     1  180.0000771  0.0000000  2
    340    342    346    348     1  180.0000771  0.0000000  2
    340    338    339    351     1  180.0000771  2.0083200  2
    340    338    339    351     1  0.0000000  1.2552000  3
     27     64     33     37     4  180.0000771  43.9320000  2
     30     89     34     40     4  180.0000771  43.9320000  2
     21    114     35     38     4  180.0000771  43.9320000  2
     24    139     36     39     4  180.0000771  43.9320000  2
     54    141     60     62     4  180.0000771  43.9320000  2
     57    168     61     63     4  180.0000771  43.9320000  2
     79    195     85     87     4  180.0000771  43.9320000  2
     82    222     86     88     4  180.0000771  43.9320000  2
    104    249    110    112     4  180.0000771  43.9320000  2
    107    276    111    113     4  180.0000771  43.9320000  2
    129    303    135    137     4  180.0000771  43.9320000  2
    132    330    136    138     4  180.0000771  43.9320000  2
    153    158    157    159     4  180.0000771  4.6024000  2
    162    166    165    167     4  180.0000771  4.6024000  2
    180    185    184    186     4  180.0000771  4.6024000  2
    189    193    192    194     4  180.0000771  4.6024000  2
    207    212    211    213     4  180.0000771  4.6024000  2
    216    220    219    221     4  180.0000771  4.6024000  2
    234    239    238    240     4  180.0000771  4.6024000  2
    243    247    246    248     4  180.0000771  4.6024000  2
    261    266    265    267     4  180.0000771  4.6024000  2
    270    274    273    275     4  180.0000771  4.6024000  2
    288    293    292    294     4  180.0000771  4.6024000  2
    297    301    300    302     4  180.0000771  4.6024000  2
    315    320    319    321     4  180.0000771  4.6024000  2
    324    328    327    329     4  180.0000771  4.6024000  2
    342    347    346    348     4  180.0000771  4.6024000  2
    351    355    354    356     4  180.0000771  4.6024000  2
      1      8      9     10     1  0.0000000  1.2552000  3
      1      8      9     11     1  0.0000000  1.2552000  3
      1      8     12     13     1  0.0000000  1.2552000  3
      1      8     12     14     1  0.0000000  1.2552000  3
      2      1      4      7     1  0.0000000  0.6508444  3
      2      1      4      5     1  0.0000000  0.6508444  3
      2      1      4      6     1  0.0000000  0.6508444  3
      2      1      8      9     1  0.0000000  1.2552000  3
      2      1      8     12     1  0.0000000  1.2552000  3
      3      1      4      7     1  0.0000000  0.6508444  3
      3      1      4      5     1  0.0000000  0.6508444  3
      3      1      4      6     1  0.0000000  0.6508444  3
      3      1      8      9     1  0.0000000  1.2552000  3
      3      1      8     12     1  0.0000000  1.2552000  3
      4      7     15     16     1  0.0000000  1.2552000  3
      4      7     15     17     1  0.0000000  1.2552000  3
      4      7     18     19     1  0.0000000  1.2552000  3
      4      7     18     20     1  0.0000000  1.2552000  3
      8      1      4      5     1  0.0000000  0.6508444  3
      5      4      7     15     1  0.0000000  1.2552000  3
      5      4      7     18     1  0.0000000  1.2552000  3
      8      1      4      6     1  0.0000000  0.6508444  3
      6      4      7     15     1  0.0000000  1.2552000  3
      6      4      7     18     1  0.0000000  1.2552000  3
      7     15     21     22     1  0.0000000  0.6508444  3
      7     15     21     23     1  0.0000000  0.6508444  3
      7     18     24     25     1  0.0000000  0.6508444  3
      7     18     24     26     1  0.0000000  0.6508444  3
      8      9     30     31     1  0.0000000  0.6508444  3
      8      9     30     32     1  0.0000000  0.6508444  3
      8     12     27     28     1  0.0000000  0.6508444  3
      8     12     27     29     1  0.0000000  0.6508444  3
      9      8     12     13     1  0.0000000  1.2552000  3
      9      8     12     14     1  0.0000000  1.2552000  3
     10      9      8     12     1  0.0000000  1.2552000  3
     10      9     30     34     1  0.0000000  0.6508444  3
     10      9     30     31     1  0.0000000  0.6508444  3
     10      9     30     32     1  0.0000000  0.6508444  3
     11      9      8     12     1  0.0000000  1.2552000  3
     11      9     30     34     1  0.0000000  0.6508444  3
     11      9     30     31     1  0.0000000  0.6508444  3
     11      9     30     32     1  0.0000000  0.6508444  3
     13     12     27     33     1  0.0000000  0.6508444  3
     13     12     27     28     1  0.0000000  0.6508444  3
     13     12     27     29     1  0.0000000  0.6508444  3
     14     12     27     33     1  0.0000000  0.6508444  3
     14     12     27     28     1  0.0000000  0.6508444  3
     14     12     27     29     1  0.0000000  0.6508444  3
     15      7     18     19     1  0.0000000  1.2552000  3
     15      7     18     20     1  0.0000000  1.2552000  3
     16     15      7     18     1  0.0000000  1.2552000  3
     16     15     21     35     1  0.0000000  0.6508444  3
     16     15     21     22     1  0.0000000  0.6508444  3
     16     15     21     23     1  0.0000000  0.6508444  3
     17     15      7     18     1  0.0000000  1.2552000  3
     17     15     21     35     1  0.0000000  0.6508444  3
     17     15     21     22     1  0.0000000  0.6508444  3
     17     15     21     23     1  0.0000000  0.6508444  3
     19     18     24     36     1  0.0000000  0.6508444  3
     19     18     24     25     1  0.0000000  0.6508444  3
     19     18     24     26     1  0.0000000  0.6508444  3
     20     18     24     36     1  0.0000000  0.6508444  3
     20     18     24     25     1  0.0000000  0.6508444  3
     20     18     24     26     1  0.0000000  0.6508444  3
     21     35    114    115     1  180.0000771  10.4600000  2
     22     21     35     38     1  0.0000000  3.3472000  1
     22     21     35     38     1  0.0000000  0.0000000  2
     22     21     35     38     1  180.0000771  0.3347200  3
     22     21     35    114     1  180.0000771  0.0000000  2
     23     21     35     38     1  0.0000000  3.3472000  1
     23     21     35     38     1  0.0000000  0.0000000  2
     23     21     35     38     1  180.0000771  0.3347200  3
     23     21     35    114     1  180.0000771  0.0000000  2
     24     36    139    140     1  180.0000771  10.4600000  2
     25     24     36     39     1  0.0000000  3.3472000  1
     25     24     36     39     1  0.0000000  0.0000000  2
     25     24     36     39     1  180.0000771  0.3347200  3
     25     24     36    139     1  180.0000771  0.0000000  2
     26     24     36     39     1  0.0000000  3.3472000  1
     26     24     36     39     1  0.0000000  0.0000000  2
     26     24     36     39     1  180.0000771  0.3347200  3
     26     24     36    139     1  180.0000771  0.0000000  2
     27     33     64     65     1  180.0000771  10.4600000  2
     28     27     33     37     1  0.0000000  3.3472000  1
     28     27     33     37     1  0.0000000  0.0000000  2
     28     27     33     37     1  180.0000771  0.3347200  3
     28     27     33     64     1  180.0000771  0.0000000  2
     29     27     33     37     1  0.0000000  3.3472000  1
     29     27     33     37     1  0.0000000  0.0000000  2
     29     27     33     37     1  180.0000771  0.3347200  3
     29     27     33     64     1  180.0000771  0.0000000  2
     30     34     89     90     1  180.0000771  10.4600000  2
     31     30     34     40     1  0.0000000  3.3472000  1
     31     30     34     40     1  0.0000000  0.0000000  2
     31     30     34     40     1  180.0000771  0.3347200  3
     31     30     34     89     1  180.0000771  0.0000000  2
     32     30     34     40     1  0.0000000  3.3472000  1
     32     30     34     40     1  0.0000000  0.0000000  2
     32     30     34     40     1  180.0000771  0.3347200  3
     32     30     34     89     1  180.0000771  0.0000000  2
     33     64     44     45     1  0.0000000  0.0000000  2
     33     64     44     46     1  0.0000000  0.0000000  2
     34     89     69     70     1  0.0000000  0.0000000  2
     34     89     69     71     1  0.0000000  0.0000000  2
     35    114     94     95     1  0.0000000  0.0000000  2
     35    114     94     96     1  0.0000000  0.0000000  2
     36    139    119    120     1  0.0000000  0.0000000  2
     36    139    119    121     1  0.0000000  0.0000000  2
     37     33     64     65     1  0.0000000  8.3680000  1
     37     33     64     65     1  180.0000771  10.4600000  2
     38     35    114    115     1  0.0000000  8.3680000  1
     38     35    114    115     1  180.0000771  10.4600000  2
     39     36    139    140     1  0.0000000  8.3680000  1
     39     36    139    140     1  180.0000771  10.4600000  2
     40     34     89     90     1  0.0000000  8.3680000  1
     40     34     89     90     1  180.0000771  10.4600000  2
     41     44     64     65     1  0.0000000  0.0000000  2
     41     47     48     49     1  0.0000000  1.2552000  3
     41     47     48     50     1  0.0000000  1.2552000  3
     41     47     51     52     1  0.0000000  1.2552000  3
     41     47     51     53     1  0.0000000  1.2552000  3
     42     41     44     64     1  0.0000000  0.6508444  3
     42     41     44     45     1  0.0000000  0.6508444  3
     42     41     44     46     1  0.0000000  0.6508444  3
     42     41     47     48     1  0.0000000  1.2552000  3
     42     41     47     51     1  0.0000000  1.2552000  3
     43     41     44     64     1  0.0000000  0.6508444  3
     43     41     44     45     1  0.0000000  0.6508444  3
     43     41     44     46     1  0.0000000  0.6508444  3
     43     41     47     48     1  0.0000000  1.2552000  3
     43     41     47     51     1  0.0000000  1.2552000  3
     45     44     41     47     1  0.0000000  0.6508444  3
     45     44     64     65     1  0.0000000  0.0000000  2
     46     44     41     47     1  0.0000000  0.6508444  3
     46     44     64     65     1  0.0000000  0.0000000  2
     47     48     57     58     1  0.0000000  0.6508444  3
     47     48     57     59     1  0.0000000  0.6508444  3
     47     51     54     55     1  0.0000000  0.6508444  3
     47     51     54     56     1  0.0000000  0.6508444  3
     48     47     51     52     1  0.0000000  1.2552000  3
     48     47     51     53     1  0.0000000  1.2552000  3
     49     48     47     51     1  0.0000000  1.2552000  3
     49     48     57     61     1  0.0000000  0.6508444  3
     49     48     57     58     1  0.0000000  0.6508444  3
     49     48     57     59     1  0.0000000  0.6508444  3
     50     48     47     51     1  0.0000000  1.2552000  3
     50     48     57     61     1  0.0000000  0.6508444  3
     50     48     57     58     1  0.0000000  0.6508444  3
     50     48     57     59     1  0.0000000  0.6508444  3
     52     51     54     60     1  0.0000000  0.6508444  3
     52     51     54     55     1  0.0000000  0.6508444  3
     52     51     54     56     1  0.0000000  0.6508444  3
     53     51     54     60     1  0.0000000  0.6508444  3
     53     51     54     55     1  0.0000000  0.6508444  3
     53     51     54     56     1  0.0000000  0.6508444  3
     54     60    141    142     1  180.0000771  10.4600000  2
     55     54     60    141     1  180.0000771  0.0000000  2
     55     54     60     62     1  0.0000000  3.3472000  1
     55     54     60     62     1  0.0000000  0.0000000  2
     55     54     60     62     1  180.0000771  0.3347200  3
     56     54     60    141     1  180.0000771  0.0000000  2
     56     54     60     62     1  0.0000000  3.3472000  1
     56     54     60     62     1  0.0000000  0.0000000  2
     56     54     60     62     1  180.0000771  0.3347200  3
     57     61    168    169     1  180.0000771  10.4600000  2
     58     57     61     63     1  0.0000000  3.3472000  1
     58     57     61     63     1  0.0000000  0.0000000  2
     58     57     61     63     1  180.0000771  0.3347200  3
     58     57     61    168     1  180.0000771  0.0000000  2
     59     57     61     63     1  0.0000000  3.3472000  1
     59     57     61     63     1  0.0000000  0.0000000  2
     59     57     61     63     1  180.0000771  0.3347200  3
     59     57     61    168     1  180.0000771  0.0000000  2
     60    141    143    144     1  0.0000000  0.0000000  2
     60    141    143    146     1  0.0000000  0.0000000  2
     61    168    170    171     1  0.0000000  0.0000000  2
     61    168    170    173     1  0.0000000  0.0000000  2
     62     60    141    142     1  0.0000000  8.3680000  1
     62     60    141    142     1  180.0000771  10.4600000  2
     63     61    168    169     1  0.0000000  8.3680000  1
     63     61    168    169     1  180.0000771  10.4600000  2
     66     69     89     90     1  0.0000000  0.0000000  2
     66     72     73     74     1  0.0000000  1.2552000  3
     66     72     73     75     1  0.0000000  1.2552000  3
     66     72     76     77     1  0.0000000  1.2552000  3
     66     72     76     78     1  0.0000000  1.2552000  3
     67     66     69     89     1  0.0000000  0.6508444  3
     67     66     69     70     1  0.0000000  0.6508444  3
     67     66     69     71     1  0.0000000  0.6508444  3
     67     66     72     73     1  0.0000000  1.2552000  3
     67     66     72     76     1  0.0000000  1.2552000  3
     68     66     69     89     1  0.0000000  0.6508444  3
     68     66     69     70     1  0.0000000  0.6508444  3
     68     66     69     71     1  0.0000000  0.6508444  3
     68     66     72     73     1  0.0000000  1.2552000  3
     68     66     72     76     1  0.0000000  1.2552000  3
     70     69     66     72     1  0.0000000  0.6508444  3
     70     69     89     90     1  0.0000000  0.0000000  2
     71     69     66     72     1  0.0000000  0.6508444  3
     71     69     89     90     1  0.0000000  0.0000000  2
     72     73     82     83     1  0.0000000  0.6508444  3
     72     73     82     84     1  0.0000000  0.6508444  3
     72     76     79     80     1  0.0000000  0.6508444  3
     72     76     79     81     1  0.0000000  0.6508444  3
     73     72     76     77     1  0.0000000  1.2552000  3
     73     72     76     78     1  0.0000000  1.2552000  3
     74     73     72     76     1  0.0000000  1.2552000  3
     74     73     82     86     1  0.0000000  0.6508444  3
     74     73     82     83     1  0.0000000  0.6508444  3
     74     73     82     84     1  0.0000000  0.6508444  3
     75     73     72     76     1  0.0000000  1.2552000  3
     75     73     82     86     1  0.0000000  0.6508444  3
     75     73     82     83     1  0.0000000  0.6508444  3
     75     73     82     84     1  0.0000000  0.6508444  3
     77     76     79     85     1  0.0000000  0.6508444  3
     77     76     79     80     1  0.0000000  0.6508444  3
     77     76     79     81     1  0.0000000  0.6508444  3
     78     76     79     85     1  0.0000000  0.6508444  3
     78     76     79     80     1  0.0000000  0.6508444  3
     78     76     79     81     1  0.0000000  0.6508444  3
     79     85    195    196     1  180.0000771  10.4600000  2
     80     79     85    195     1  180.0000771  0.0000000  2
     80     79     85     87     1  0.0000000  3.3472000  1
     80     79     85     87     1  0.0000000  0.0000000  2
     80     79     85     87     1  180.0000771  0.3347200  3
     81     79     85    195     1  180.0000771  0.0000000  2
     81     79     85     87     1  0.0000000  3.3472000  1
     81     79     85     87     1  0.0000000  0.0000000  2
     81     79     85     87     1  180.0000771  0.3347200  3
     82     86    222    223     1  180.0000771  10.4600000  2
     83     82     86     88     1  0.0000000  3.3472000  1
     83     82     86     88     1  0.0000000  0.0000000  2
     83     82     86     88     1  180.0000771  0.3347200  3
     83     82     86    222     1  180.0000771  0.0000000  2
     84     82     86     88     1  0.0000000  3.3472000  1
     84     82     86     88     1  0.0000000  0.0000000  2
     84     82     86     88     1  180.0000771  0.3347200  3
     84     82     86    222     1  180.0000771  0.0000000  2
     85    195    197    198     1  0.0000000  0.0000000  2
     85    195    197    200     1  0.0000000  0.0000000  2
     86    222    224    225     1  0.0000000  0.0000000  2
     86    222    224    227     1  0.0000000  0.0000000  2
     87     85    195    196     1  0.0000000  8.3680000  1
     87     85    195    196     1  180.0000771  10.4600000  2
     88     86    222    223     1  0.0000000  8.3680000  1
     88     86    222    223     1  180.0000771  10.4600000  2
     91     94    114    115     1  0.0000000  0.0000000  2
     91     97     98     99     1  0.0000000  1.2552000  3
     91     97     98    100     1  0.0000000  1.2552000  3
     91     97    101    102     1  0.0000000  1.2552000  3
     91     97    101    103     1  0.0000000  1.2552000  3
     92     91     94    114     1  0.0000000  0.6508444  3
     92     91     94     95     1  0.0000000  0.6508444  3
     92     91     94     96     1  0.0000000  0.6508444  3
     92     91     97     98     1  0.0000000  1.2552000  3
     92     91     97    101     1  0.0000000  1.2552000  3
     93     91     94    114     1  0.0000000  0.6508444  3
     93     91     94     95     1  0.0000000  0.6508444  3
     93     91     94     96     1  0.0000000  0.6508444  3
     93     91     97     98     1  0.0000000  1.2552000  3
     93     91     97    101     1  0.0000000  1.2552000  3
     95     94     91     97     1  0.0000000  0.6508444  3
     95     94    114    115     1  0.0000000  0.0000000  2
     96     94     91     97     1  0.0000000  0.6508444  3
     96     94    114    115     1  0.0000000  0.0000000  2
     97     98    107    108     1  0.0000000  0.6508444  3
     97     98    107    109     1  0.0000000  0.6508444  3
     97    101    104    105     1  0.0000000  0.6508444  3
     97    101    104    106     1  0.0000000  0.6508444  3
     98     97    101    102     1  0.0000000  1.2552000  3
     98     97    101    103     1  0.0000000  1.2552000  3
     99     98     97    101     1  0.0000000  1.2552000  3
     99     98    107    111     1  0.0000000  0.6508444  3
     99     98    107    108     1  0.0000000  0.6508444  3
     99     98    107    109     1  0.0000000  0.6508444  3
    100     98     97    101     1  0.0000000  1.2552000  3
    100     98    107    111     1  0.0000000  0.6508444  3
    100     98    107    108     1  0.0000000  0.6508444  3
    100     98    107    109     1  0.0000000  0.6508444  3
    102    101    104    110     1  0.0000000  0.6508444  3
    102    101    104    105     1  0.0000000  0.6508444  3
    102    101    104    106     1  0.0000000  0.6508444  3
    103    101    104    110     1  0.0000000  0.6508444  3
    103    101    104    105     1  0.0000000  0.6508444  3
    103    101    104    106     1  0.0000000  0.6508444  3
    104    110    249    250     1  180.0000771  10.4600000  2
    105    104    110    249     1  180.0000771  0.0000000  2
    105    104    110    112     1  0.0000000  3.3472000  1
    105    104    110    112     1  0.0000000  0.0000000  2
    105    104    110    112     1  180.0000771  0.3347200  3
    106    104    110    249     1  180.0000771  0.0000000  2
    106    104    110    112     1  0.0000000  3.3472000  1
    106    104    110    112     1  0.0000000  0.0000000  2
    106    104    110    112     1  180.0000771  0.3347200  3
    107    111    276    277     1  180.0000771  10.4600000  2
    108    107    111    113     1  0.0000000  3.3472000  1
    108    107    111    113     1  0.0000000  0.0000000  2
    108    107    111    113     1  180.0000771  0.3347200  3
    108    107    111    276     1  180.0000771  0.0000000  2
    109    107    111    113     1  0.0000000  3.3472000  1
    109    107    111    113     1  0.0000000  0.0000000  2
    109    107    111    113     1  180.0000771  0.3347200  3
    109    107    111    276     1  180.0000771  0.0000000  2
    110    249    251    252     1  0.0000000  0.0000000  2
    110    249    251    254     1  0.0000000  0.0000000  2
    111    276    278    279     1  0.0000000  0.0000000  2
    111    276    278    281     1  0.0000000  0.0000000  2
    112    110    249    250     1  0.0000000  8.3680000  1
    112    110    249    250     1  180.0000771  10.4600000  2
    113    111    276    277     1  0.0000000  8.3680000  1
    113    111    276    277     1  180.0000771  10.4600000  2
    116    119    139    140     1  0.0000000  0.0000000  2
    116    122    123    124     1  0.0000000  1.2552000  3
    116    122    123    125     1  0.0000000  1.2552000  3
    116    122    126    127     1  0.0000000  1.2552000  3
    116    122    126    128     1  0.0000000  1.2552000  3
    117    116    119    139     1  0.0000000  0.6508444  3
    117    116    119    120     1  0.0000000  0.6508444  3
    117    116    119    121     1  0.0000000  0.6508444  3
    117    116    122    123     1  0.0000000  1.2552000  3
    117    116    122    126     1  0.0000000  1.2552000  3
    118    116    119    139     1  0.0000000  0.6508444  3
    118    116    119    120     1  0.0000000  0.6508444  3
    118    116    119    121     1  0.0000000  0.6508444  3
    118    116    122    123     1  0.0000000  1.2552000  3
    118    116    122    126     1  0.0000000  1.2552000  3
    120    119    116    122     1  0.0000000  0.6508444  3
    120    119    139    140     1  0.0000000  0.0000000  2
    121    119    116    122     1  0.0000000  0.6508444  3
    121    119    139    140     1  0.0000000  0.0000000  2
    122    123    132    133     1  0.0000000  0.6508444  3
    122    123    132    134     1  0.0000000  0.6508444  3
    122    126    129    130     1  0.0000000  0.6508444  3
    122    126    129    131     1  0.0000000  0.6508444  3
    123    122    126    127     1  0.0000000  1.2552000  3
    123    122    126    128     1  0.0000000  1.2552000  3
    124    123    122    126     1  0.0000000  1.2552000  3
    124    123    132    136     1  0.0000000  0.6508444  3
    124    123    132    133     1  0.0000000  0.6508444  3
    124    123    132    134     1  0.0000000  0.6508444  3
    125    123    122    126     1  0.0000000  1.2552000  3
    125    123    132    136     1  0.0000000  0.6508444  3
    125    123    132    133     1  0.0000000  0.6508444  3
    125    123    132    134     1  0.0000000  0.6508444  3
    127    126    129    135     1  0.0000000  0.6508444  3
    127    126    129    130     1  0.0000000  0.6508444  3
    127    126    129    131     1  0.0000000  0.6508444  3
    128    126    129    135     1  0.0000000  0.6508444  3
    128    126    129    130     1  0.0000000  0.6508444  3
    128    126    129    131     1  0.0000000  0.6508444  3
    129    135    303    304     1  180.0000771  10.4600000  2
    130    129    135    303     1  180.0000771  0.0000000  2
    130    129    135    137     1  0.0000000  3.3472000  1
    130    129    135    137     1  0.0000000  0.0000000  2
    130    129    135    137     1  180.0000771  0.3347200  3
    131    129    135    303     1  180.0000771  0.0000000  2
    131    129    135    137     1  0.0000000  3.3472000  1
    131    129    135    137     1  0.0000000  0.0000000  2
    131    129    135    137     1  180.0000771  0.3347200  3
    132    136    330    331     1  180.0000771  10.4600000  2
    133    132    136    330     1  180.0000771  0.0000000  2
    133    132    136    138     1  0.0000000  3.3472000  1
    133    132    136    138     1  0.0000000  0.0000000  2
    133    132    136    138     1  180.0000771  0.3347200  3
    134    132    136    330     1  180.0000771  0.0000000  2
    134    132    136    138     1  0.0000000  3.3472000  1
    134    132    136    138     1  0.0000000  0.0000000  2
    134    132    136    138     1  180.0000771  0.3347200  3
    135    303    305    306     1  0.0000000  0.0000000  2
    135    303    305    308     1  0.0000000  0.0000000  2
    136    330    332    333     1  0.0000000  0.0000000  2
    136    330    332    335     1  0.0000000  0.0000000  2
    137    135    303    304     1  0.0000000  8.3680000  1
    137    135    303    304     1  180.0000771  10.4600000  2
    138    136    330    331     1  0.0000000  8.3680000  1
    138    136    330    331     1  180.0000771  10.4600000  2
    141    143    145    147     1  0.0000000  0.6508444  3
    141    143    145    148     1  0.0000000  0.6508444  3
    142    141    143    145     1  0.0000000  0.0000000  2
    142    141    143    144     1  0.0000000  0.0000000  2
    142    141    143    146     1  0.0000000  0.0000000  2
    144    143    145    149     1  0.0000000  0.6508444  3
    144    143    145    147     1  0.0000000  0.6508444  3
    144    143    145    148     1  0.0000000  0.6508444  3
    145    149    150    160     1  0.0000000  1.2552000  3
    145    149    150    161     1  0.0000000  1.2552000  3
    145    149    151    152     1  0.0000000  1.2552000  3
    145    149    151    154     1  0.0000000  1.2552000  3
    146    143    145    149     1  0.0000000  0.6508444  3
    146    143    145    147     1  0.0000000  0.6508444  3
    146    143    145    148     1  0.0000000  0.6508444  3
    147    145    149    150     1  0.0000000  1.2552000  3
    147    145    149    151     1  0.0000000  1.2552000  3
    148    145    149    150     1  0.0000000  1.2552000  3
    148    145    149    151     1  0.0000000  1.2552000  3
    149    150    162    163     1  0.0000000  0.6508444  3
    149    150    162    164     1  0.0000000  0.6508444  3
    149    151    153    155     1  0.0000000  0.6508444  3
    149    151    153    156     1  0.0000000  0.6508444  3
    150    149    151    152     1  0.0000000  1.2552000  3
    150    149    151    154     1  0.0000000  1.2552000  3
    151    149    150    160     1  0.0000000  1.2552000  3
    151    149    150    161     1  0.0000000  1.2552000  3
    152    151    153    157     1  0.0000000  0.6508444  3
    152    151    153    155     1  0.0000000  0.6508444  3
    152    151    153    156     1  0.0000000  0.6508444  3
    154    151    153    157     1  0.0000000  0.6508444  3
    154    151    153    155     1  0.0000000  0.6508444  3
    154    151    153    156     1  0.0000000  0.6508444  3
    155    153    157    158     1  0.0000000  3.3472000  1
    155    153    157    158     1  0.0000000  0.0000000  2
    155    153    157    158     1  180.0000771  0.3347200  3
    155    153    157    159     1  0.0000000  3.3472000  1
    155    153    157    159     1  0.0000000  0.0000000  2
    155    153    157    159     1  180.0000771  0.3347200  3
    156    153    157    158     1  0.0000000  3.3472000  1
    156    153    157    158     1  0.0000000  0.0000000  2
    156    153    157    158     1  180.0000771  0.3347200  3
    156    153    157    159     1  0.0000000  3.3472000  1
    156    153    157    159     1  0.0000000  0.0000000  2
    156    153    157    159     1  180.0000771  0.3347200  3
    160    150    162    165     1  0.0000000  0.6508444  3
    160    150    162    163     1  0.0000000  0.6508444  3
    160    150    162    164     1  0.0000000  0.6508444  3
    161    150    162    165     1  0.0000000  0.6508444  3
    161    150    162    163     1  0.0000000  0.6508444  3
    161    150    162    164     1  0.0000000  0.6508444  3
    163    162    165    166     1  0.0000000  3.3472000  1
    163    162    165    166     1  0.0000000  0.0000000  2
    163    162    165    166     1  180.0000771  0.3347200  3
    163    162    165    167     1  0.0000000  3.3472000  1
    163    162    165    167     1  0.0000000  0.0000000  2
    163    162    165    167     1  180.0000771  0.3347200  3
    164    162    165    166     1  0.0000000  3.3472000  1
    164    162    165    166     1  0.0000000  0.0000000  2
    164    162    165    166     1  180.0000771  0.3347200  3
    164    162    165    167     1  0.0000000  3.3472000  1
    164    162    165    167     1  0.0000000  0.0000000  2
    164    162    165    167     1  180.0000771  0.3347200  3
    168    170    172    174     1  0.0000000  0.6508444  3
    168    170    172    175     1  0.0000000  0.6508444  3
    169    168    170    172     1  0.0000000  0.0000000  2
    169    168    170    171     1  0.0000000  0.0000000  2
    169    168    170    173     1  0.0000000  0.0000000  2
    171    170    172    176     1  0.0000000  0.6508444  3
    171    170    172    174     1  0.0000000  0.6508444  3
    171    170    172    175     1  0.0000000  0.6508444  3
    172    176    177    187     1  0.0000000  1.2552000  3
    172    176    177    188     1  0.0000000  1.2552000  3
    172    176    178    179     1  0.0000000  1.2552000  3
    172    176    178    181     1  0.0000000  1.2552000  3
    173    170    172    176     1  0.0000000  0.6508444  3
    173    170    172    174     1  0.0000000  0.6508444  3
    173    170    172    175     1  0.0000000  0.6508444  3
    174    172    176    177     1  0.0000000  1.2552000  3
    174    172    176    178     1  0.0000000  1.2552000  3
    175    172    176    177     1  0.0000000  1.2552000  3
    175    172    176    178     1  0.0000000  1.2552000  3
    176    177    189    190     1  0.0000000  0.6508444  3
    176    177    189    191     1  0.0000000  0.6508444  3
    176    178    180    182     1  0.0000000  0.6508444  3
    176    178    180    183     1  0.0000000  0.6508444  3
    177    176    178    179     1  0.0000000  1.2552000  3
    177    176    178    181     1  0.0000000  1.2552000  3
    178    176    177    187     1  0.0000000  1.2552000  3
    178    176    177    188     1  0.0000000  1.2552000  3
    179    178    180    184     1  0.0000000  0.6508444  3
    179    178    180    182     1  0.0000000  0.6508444  3
    179    178    180    183     1  0.0000000  0.6508444  3
    181    178    180    184     1  0.0000000  0.6508444  3
    181    178    180    182     1  0.0000000  0.6508444  3
    181    178    180    183     1  0.0000000  0.6508444  3
    182    180    184    185     1  0.0000000  3.3472000  1
    182    180    184    185     1  0.0000000  0.0000000  2
    182    180    184    185     1  180.0000771  0.3347200  3
    182    180    184    186     1  0.0000000  3.3472000  1
    182    180    184    186     1  0.0000000  0.0000000  2
    182    180    184    186     1  180.0000771  0.3347200  3
    183    180    184    185     1  0.0000000  3.3472000  1
    183    180    184    185     1  0.0000000  0.0000000  2
    183    180    184    185     1  180.0000771  0.3347200  3
    183    180    184    186     1  0.0000000  3.3472000  1
    183    180    184    186     1  0.0000000  0.0000000  2
    183    180    184    186     1  180.0000771  0.3347200  3
    187    177    189    192     1  0.0000000  0.6508444  3
    187    177    189    190     1  0.0000000  0.6508444  3
    187    177    189    191     1  0.0000000  0.6508444  3
    188    177    189    192     1  0.0000000  0.6508444  3
    188    177    189    190     1  0.0000000  0.6508444  3
    188    177    189    191     1  0.0000000  0.6508444  3
    190    189    192    193     1  0.0000000  3.3472000  1
    190    189    192    193     1  0.0000000  0.0000000  2
    190    189    192    193     1  180.0000771  0.3347200  3
    190    189    192    194     1  0.0000000  3.3472000  1
    190    189    192    194     1  0.0000000  0.0000000  2
    190    189    192    194     1  180.0000771  0.3347200  3
    191    189    192    193     1  0.0000000  3.3472000  1
    191    189    192    193     1  0.0000000  0.0000000  2
    191    189    192    193     1  180.0000771  0.3347200  3
    191    189    192    194     1  0.0000000  3.3472000  1
    191    189    192    194     1  0.0000000  0.0000000  2
    191    189    192    194     1  180.0000771  0.3347200  3
    195    197    199    201     1  0.0000000  0.6508444  3
    195    197    199    202     1  0.0000000  0.6508444  3
    196    195    197    199     1  0.0000000  0.0000000  2
    196    195    197    198     1  0.0000000  0.0000000  2
    196    195    197    200     1  0.0000000  0.0000000  2
    198    197    199    203     1  0.0000000  0.6508444  3
    198    197    199    201     1  0.0000000  0.6508444  3
    198    197    199    202     1  0.0000000  0.6508444  3
    199    203    204    214     1  0.0000000  1.2552000  3
    199    203    204    215     1  0.0000000  1.2552000  3
    199    203    205    206     1  0.0000000  1.2552000  3
    199    203    205    208     1  0.0000000  1.2552000  3
    200    197    199    203     1  0.0000000  0.6508444  3
    200    197    199    201     1  0.0000000  0.6508444  3
    200    197    199    202     1  0.0000000  0.6508444  3
    201    199    203    204     1  0.0000000  1.2552000  3
    201    199    203    205     1  0.0000000  1.2552000  3
    202    199    203    204     1  0.0000000  1.2552000  3
    202    199    203    205     1  0.0000000  1.2552000  3
    203    204    216    217     1  0.0000000  0.6508444  3
    203    204    216    218     1  0.0000000  0.6508444  3
    203    205    207    209     1  0.0000000  0.6508444  3
    203    205    207    210     1  0.0000000  0.6508444  3
    204    203    205    206     1  0.0000000  1.2552000  3
    204    203    205    208     1  0.0000000  1.2552000  3
    205    203    204    214     1  0.0000000  1.2552000  3
    205    203    204    215     1  0.0000000  1.2552000  3
    206    205    207    211     1  0.0000000  0.6508444  3
    206    205    207    209     1  0.0000000  0.6508444  3
    206    205    207    210     1  0.0000000  0.6508444  3
    208    205    207    211     1  0.0000000  0.6508444  3
    208    205    207    209     1  0.0000000  0.6508444  3
    208    205    207    210     1  0.0000000  0.6508444  3
    209    207    211    212     1  0.0000000  3.3472000  1
    209    207    211    212     1  0.0000000  0.0000000  2
    209    207    211    212     1  180.0000771  0.3347200  3
    209    207    211    213     1  0.0000000  3.3472000  1
    209    207    211    213     1  0.0000000  0.0000000  2
    209    207    211    213     1  180.0000771  0.3347200  3
    210    207    211    212     1  0.0000000  3.3472000  1
    210    207    211    212     1  0.0000000  0.0000000  2
    210    207    211    212     1  180.0000771  0.3347200  3
    210    207    211    213     1  0.0000000  3.3472000  1
    210    207    211    213     1  0.0000000  0.0000000  2
    210    207    211    213     1  180.0000771  0.3347200  3
    214    204    216    219     1  0.0000000  0.6508444  3
    214    204    216    217     1  0.0000000  0.6508444  3
    214    204    216    218     1  0.0000000  0.6508444  3
    215    204    216    219     1  0.0000000  0.6508444  3
    215    204    216    217     1  0.0000000  0.6508444  3
    215    204    216    218     1  0.0000000  0.6508444  3
    217    216    219    220     1  0.0000000  3.3472000  1
    217    216    219    220     1  0.0000000  0.0000000  2
    217    216    219    220     1  180.0000771  0.3347200  3
    217    216    219    221     1  0.0000000  3.3472000  1
    217    216    219    221     1  0.0000000  0.0000000  2
    217    216    219    221     1  180.0000771  0.3347200  3
    218    216    219    220     1  0.0000000  3.3472000  1
    218    216    219    220     1  0.0000000  0.0000000  2
    218    216    219    220     1  180.0000771  0.3347200  3
    218    216    219    221     1  0.0000000  3.3472000  1
    218    216    219    221     1  0.0000000  0.0000000  2
    218    216    219    221     1  180.0000771  0.3347200  3
    222    224    226    228     1  0.0000000  0.6508444  3
    222    224    226    229     1  0.0000000  0.6508444  3
    223    222    224    226     1  0.0000000  0.0000000  2
    223    222    224    225     1  0.0000000  0.0000000  2
    223    222    224    227     1  0.0000000  0.0000000  2
    225    224    226    230     1  0.0000000  0.6508444  3
    225    224    226    228     1  0.0000000  0.6508444  3
    225    224    226    229     1  0.0000000  0.6508444  3
    226    230    231    241     1  0.0000000  1.2552000  3
    226    230    231    242     1  0.0000000  1.2552000  3
    226    230    232    233     1  0.0000000  1.2552000  3
    226    230    232    235     1  0.0000000  1.2552000  3
    227    224    226    230     1  0.0000000  0.6508444  3
    227    224    226    228     1  0.0000000  0.6508444  3
    227    224    226    229     1  0.0000000  0.6508444  3
    228    226    230    231     1  0.0000000  1.2552000  3
    228    226    230    232     1  0.0000000  1.2552000  3
    229    226    230    231     1  0.0000000  1.2552000  3
    229    226    230    232     1  0.0000000  1.2552000  3
    230    231    243    244     1  0.0000000  0.6508444  3
    230    231    243    245     1  0.0000000  0.6508444  3
    230    232    234    236     1  0.0000000  0.6508444  3
    230    232    234    237     1  0.0000000  0.6508444  3
    231    230    232    233     1  0.0000000  1.2552000  3
    231    230    232    235     1  0.0000000  1.2552000  3
    232    230    231    241     1  0.0000000  1.2552000  3
    232    230    231    242     1  0.0000000  1.2552000  3
    233    232    234    238     1  0.0000000  0.6508444  3
    233    232    234    236     1  0.0000000  0.6508444  3
    233    232    234    237     1  0.0000000  0.6508444  3
    235    232    234    238     1  0.0000000  0.6508444  3
    235    232    234    236     1  0.0000000  0.6508444  3
    235    232    234    237     1  0.0000000  0.6508444  3
    236    234    238    239     1  0.0000000  3.3472000  1
    236    234    238    239     1  0.0000000  0.0000000  2
    236    234    238    239     1  180.0000771  0.3347200  3
    236    234    238    240     1  0.0000000  3.3472000  1
    236    234    238    240     1  0.0000000  0.0000000  2
    236    234    238    240     1  180.0000771  0.3347200  3
    237    234    238    239     1  0.0000000  3.3472000  1
    237    234    238    239     1  0.0000000  0.0000000  2
    237    234    238    239     1  180.0000771  0.3347200  3
    237    234    238    240     1  0.0000000  3.3472000  1
    237    234    238    240     1  0.0000000  0.0000000  2
    237    234    238    240     1  180.0000771  0.3347200  3
    241    231    243    246     1  0.0000000  0.6508444  3
    241    231    243    244     1  0.0000000  0.6508444  3
    241    231    243    245     1  0.0000000  0.6508444  3
    242    231    243    246     1  0.0000000  0.6508444  3
    242    231    243    244     1  0.0000000  0.6508444  3
    242    231    243    245     1  0.0000000  0.6508444  3
    244    243    246    247     1  0.0000000  3.3472000  1
    244    243    246    247     1  0.0000000  0.0000000  2
    244    243    246    247     1  180.0000771  0.3347200  3
    244    243    246    248     1  0.0000000  3.3472000  1
    244    243    246    248     1  0.0000000  0.0000000  2
    244    243    246    248     1  180.0000771  0.3347200  3
    245    243    246    247     1  0.0000000  3.3472000  1
    245    243    246    247     1  0.0000000  0.0000000  2
    245    243    246    247     1  180.0000771  0.3347200  3
    245    243    246    248     1  0.0000000  3.3472000  1
    245    243    246    248     1  0.0000000  0.0000000  2
    245    243    246    248     1  180.0000771  0.3347200  3
    249    251    253    255     1  0.0000000  0.6508444  3
    249    251    253    256     1  0.0000000  0.6508444  3
    250    249    251    253     1  0.0000000  0.0000000  2
    250    249    251    252     1  0.0000000  0.0000000  2
    250    249    251    254     1  0.0000000  0.0000000  2
    252    251    253    257     1  0.0000000  0.6508444  3
    252    251    253    255     1  0.0000000  0.6508444  3
    252    251    253    256     1  0.0000000  0.6508444  3
    253    257    258    268     1  0.0000000  1.2552000  3
    253    257    258    269     1  0.0000000  1.2552000  3
    253    257    259    260     1  0.0000000  1.2552000  3
    253    257    259    262     1  0.0000000  1.2552000  3
    254    251    253    257     1  0.0000000  0.6508444  3
    254    251    253    255     1  0.0000000  0.6508444  3
    254    251    253    256     1  0.0000000  0.6508444  3
    255    253    257    258     1  0.0000000  1.2552000  3
    255    253    257    259     1  0.0000000  1.2552000  3
    256    253    257    258     1  0.0000000  1.2552000  3
    256    253    257    259     1  0.0000000  1.2552000  3
    257    258    270    271     1  0.0000000  0.6508444  3
    257    258    270    272     1  0.0000000  0.6508444  3
    257    259    261    263     1  0.0000000  0.6508444  3
    257    259    261    264     1  0.0000000  0.6508444  3
    258    257    259    260     1  0.0000000  1.2552000  3
    258    257    259    262     1  0.0000000  1.2552000  3
    259    257    258    268     1  0.0000000  1.2552000  3
    259    257    258    269     1  0.0000000  1.2552000  3
    260    259    261    265     1  0.0000000  0.6508444  3
    260    259    261    263     1  0.0000000  0.6508444  3
    260    259    261    264     1  0.0000000  0.6508444  3
    262    259    261    265     1  0.0000000  0.6508444  3
    262    259    261    263     1  0.0000000  0.6508444  3
    262    259    261    264     1  0.0000000  0.6508444  3
    263    261    265    266     1  0.0000000  3.3472000  1
    263    261    265    266     1  0.0000000  0.0000000  2
    263    261    265    266     1  180.0000771  0.3347200  3
    263    261    265    267     1  0.0000000  3.3472000  1
    263    261    265    267     1  0.0000000  0.0000000  2
    263    261    265    267     1  180.0000771  0.3347200  3
    264    261    265    266     1  0.0000000  3.3472000  1
    264    261    265    266     1  0.0000000  0.0000000  2
    264    261    265    266     1  180.0000771  0.3347200  3
    264    261    265    267     1  0.0000000  3.3472000  1
    264    261    265    267     1  0.0000000  0.0000000  2
    264    261    265    267     1  180.0000771  0.3347200  3
    268    258    270    273     1  0.0000000  0.6508444  3
    268    258    270    271     1  0.0000000  0.6508444  3
    268    258    270    272     1  0.0000000  0.6508444  3
    269    258    270    273     1  0.0000000  0.6508444  3
    269    258    270    271     1  0.0000000  0.6508444  3
    269    258    270    272     1  0.0000000  0.6508444  3
    271    270    273    274     1  0.0000000  3.3472000  1
    271    270    273    274     1  0.0000000  0.0000000  2
    271    270    273    274     1  180.0000771  0.3347200  3
    271    270    273    275     1  0.0000000  3.3472000  1
    271    270    273    275     1  0.0000000  0.0000000  2
    271    270    273    275     1  180.0000771  0.3347200  3
    272    270    273    274     1  0.0000000  3.3472000  1
    272    270    273    274     1  0.0000000  0.0000000  2
    272    270    273    274     1  180.0000771  0.3347200  3
    272    270    273    275     1  0.0000000  3.3472000  1
    272    270    273    275     1  0.0000000  0.0000000  2
    272    270    273    275     1  180.0000771  0.3347200  3
    276    278    280    282     1  0.0000000  0.6508444  3
    276    278    280    283     1  0.0000000  0.6508444  3
    277    276    278    280     1  0.0000000  0.0000000  2
    277    276    278    279     1  0.0000000  0.0000000  2
    277    276    278    281     1  0.0000000  0.0000000  2
    279    278    280    284     1  0.0000000  0.6508444  3
    279    278    280    282     1  0.0000000  0.6508444  3
    279    278    280    283     1  0.0000000  0.6508444  3
    280    284    285    295     1  0.0000000  1.2552000  3
    280    284    285    296     1  0.0000000  1.2552000  3
    280    284    286    287     1  0.0000000  1.2552000  3
    280    284    286    289     1  0.0000000  1.2552000  3
    281    278    280    284     1  0.0000000  0.6508444  3
    281    278    280    282     1  0.0000000  0.6508444  3
    281    278    280    283     1  0.0000000  0.6508444  3
    282    280    284    285     1  0.0000000  1.2552000  3
    282    280    284    286     1  0.0000000  1.2552000  3
    283    280    284    285     1  0.0000000  1.2552000  3
    283    280    284    286     1  0.0000000  1.2552000  3
    284    285    297    298     1  0.0000000  0.6508444  3
    284    285    297    299     1  0.0000000  0.6508444  3
    284    286    288    290     1  0.0000000  0.6508444  3
    284    286    288    291     1  0.0000000  0.6508444  3
    285    284    286    287     1  0.0000000  1.2552000  3
    285    284    286    289     1  0.0000000  1.2552000  3
    286    284    285    295     1  0.0000000  1.2552000  3
    286    284    285    296     1  0.0000000  1.2552000  3
    287    286    288    292     1  0.0000000  0.6508444  3
    287    286    288    290     1  0.0000000  0.6508444  3
    287    286    288    291     1  0.0000000  0.6508444  3
    289    286    288    292     1  0.0000000  0.6508444  3
    289    286    288    290     1  0.0000000  0.6508444  3
    289    286    288    291     1  0.0000000  0.6508444  3
    290    288    292    293     1  0.0000000  3.3472000  1
    290    288    292    293     1  0.0000000  0.0000000  2
    290    288    292    293     1  180.0000771  0.3347200  3
    290    288    292    294     1  0.0000000  3.3472000  1
    290    288    292    294     1  0.0000000  0.0000000  2
    290    288    292    294     1  180.0000771  0.3347200  3
    291    288    292    293     1  0.0000000  3.3472000  1
    291    288    292    293     1  0.0000000  0.0000000  2
    291    288    292    293     1  180.0000771  0.3347200  3
    291    288    292    294     1  0.0000000  3.3472000  1
    291    288    292    294     1  0.0000000  0.0000000  2
    291    288    292    294     1  180.0000771  0.3347200  3
    295    285    297    300     1  0.0000000  0.6508444  3
    295    285    297    298     1  0.0000000  0.6508444  3
    295    285    297    299     1  0.0000000  0.6508444  3
    296    285    297    300     1  0.0000000  0.6508444  3
    296    285    297    298     1  0.0000000  0.6508444  3
    296    285    297    299     1  0.0000000  0.6508444  3
    298    297    300    301     1  0.0000000  3.3472000  1
    298    297    300    301     1  0.0000000  0.0000000  2
    298    297    300    301     1  180.0000771  0.3347200  3
    298    297    300    302     1  0.0000000  3.3472000  1
    298    297    300    302     1  0.0000000  0.0000000  2
    298    297    300    302     1  180.0000771  0.3347200  3
    299    297    300    301     1  0.0000000  3.3472000  1
    299    297    300    301     1  0.0000000  0.0000000  2
    299    297    300    301     1  180.0000771  0.3347200  3
    299    297    300    302     1  0.0000000  3.3472000  1
    299    297    300    302     1  0.0000000  0.0000000  2
    299    297    300    302     1  180.0000771  0.3347200  3
    303    305    307    309     1  0.0000000  0.6508444  3
    303    305    307    310     1  0.0000000  0.6508444  3
    304    303    305    307     1  0.0000000  0.0000000  2
    304    303    305    306     1  0.0000000  0.0000000  2
    304    303    305    308     1  0.0000000  0.0000000  2
    306    305    307    311     1  0.0000000  0.6508444  3
    306    305    307    309     1  0.0000000  0.6508444  3
    306    305    307    310     1  0.0000000  0.6508444  3
    307    311    312    322     1  0.0000000  1.2552000  3
    307    311    312    323     1  0.0000000  1.2552000  3
    307    311    313    314     1  0.0000000  1.2552000  3
    307    311    313    316     1  0.0000000  1.2552000  3
    308    305    307    311     1  0.0000000  0.6508444  3
    308    305    307    309     1  0.0000000  0.6508444  3
    308    305    307    310     1  0.0000000  0.6508444  3
    309    307    311    312     1  0.0000000  1.2552000  3
    309    307    311    313     1  0.0000000  1.2552000  3
    310    307    311    312     1  0.0000000  1.2552000  3
    310    307    311    313     1  0.0000000  1.2552000  3
    311    312    324    325     1  0.0000000  0.6508444  3
    311    312    324    326     1  0.0000000  0.6508444  3
    311    313    315    317     1  0.0000000  0.6508444  3
    311    313    315    318     1  0.0000000  0.6508444  3
    312    311    313    314     1  0.0000000  1.2552000  3
    312    311    313    316     1  0.0000000  1.2552000  3
    313    311    312    322     1  0.0000000  1.2552000  3
    313    311    312    323     1  0.0000000  1.2552000  3
    314    313    315    319     1  0.0000000  0.6508444  3
    314    313    315    317     1  0.0000000  0.6508444  3
    314    313    315    318     1  0.0000000  0.6508444  3
    316    313    315    319     1  0.0000000  0.6508444  3
    316    313    315    317     1  0.0000000  0.6508444  3
    316    313    315    318     1  0.0000000  0.6508444  3
    317    315    319    320     1  0.0000000  3.3472000  1
    317    315    319    320     1  0.0000000  0.0000000  2
    317    315    319    320     1  180.0000771  0.3347200  3
    317    315    319    321     1  0.0000000  3.3472000  1
    317    315    319    321     1  0.0000000  0.0000000  2
    317    315    319    321     1  180.0000771  0.3347200  3
    318    315    319    320     1  0.0000000  3.3472000  1
    318    315    319    320     1  0.0000000  0.0000000  2
    318    315    319    320     1  180.0000771  0.3347200  3
    318    315    319    321     1  0.0000000  3.3472000  1
    318    315    319    321     1  0.0000000  0.0000000  2
    318    315    319    321     1  180.0000771  0.3347200  3
    322    312    324    327     1  0.0000000  0.6508444  3
    322    312    324    325     1  0.0000000  0.6508444  3
    322    312    324    326     1  0.0000000  0.6508444  3
    323    312    324    327     1  0.0000000  0.6508444  3
    323    312    324    325     1  0.0000000  0.6508444  3
    323    312    324    326     1  0.0000000  0.6508444  3
    325    324    327    328     1  0.0000000  3.3472000  1
    325    324    327    328     1  0.0000000  0.0000000  2
    325    324    327    328     1  180.0000771  0.3347200  3
    325    324    327    329     1  0.0000000  3.3472000  1
    325    324    327    329     1  0.0000000  0.0000000  2
    325    324    327    329     1  180.0000771  0.3347200  3
    326    324    327    328     1  0.0000000  3.3472000  1
    326    324    327    328     1  0.0000000  0.0000000  2
    326    324    327    328     1  180.0000771  0.3347200  3
    326    324    327    329     1  0.0000000  3.3472000  1
    326    324    327    329     1  0.0000000  0.0000000  2
    326    324    327    329     1  180.0000771  0.3347200  3
    330    332    334    336     1  0.0000000  0.6508444  3
    330    332    334    337     1  0.0000000  0.6508444  3
    331    330    332    334     1  0.0000000  0.0000000  2
    331    330    332    333     1  0.0000000  0.0000000  2
    331    330    332    335     1  0.0000000  0.0000000  2
    333    332    334    338     1  0.0000000  0.6508444  3
    333    332    334    336     1  0.0000000  0.6508444  3
    333    332    334    337     1  0.0000000  0.6508444  3
    334    338    339    349     1  0.0000000  1.2552000  3
    334    338    339    350     1  0.0000000  1.2552000  3
    334    338    340    341     1  0.0000000  1.2552000  3
    334    338    340    343     1  0.0000000  1.2552000  3
    335    332    334    338     1  0.0000000  0.6508444  3
    335    332    334    336     1  0.0000000  0.6508444  3
    335    332    334    337     1  0.0000000  0.6508444  3
    336    334    338    339     1  0.0000000  1.2552000  3
    336    334    338    340     1  0.0000000  1.2552000  3
    337    334    338    339     1  0.0000000  1.2552000  3
    337    334    338    340     1  0.0000000  1.2552000  3
    338    339    351    352     1  0.0000000  0.6508444  3
    338    339    351    353     1  0.0000000  0.6508444  3
    338    340    342    344     1  0.0000000  0.6508444  3
    338    340    342    345     1  0.0000000  0.6508444  3
    339    338    340    341     1  0.0000000  1.2552000  3
    339    338    340    343     1  0.0000000  1.2552000  3
    340    338    339    349     1  0.0000000  1.2552000  3
    340    338    339    350     1  0.0000000  1.2552000  3
    341    340    342    346     1  0.0000000  0.6508444  3
    341    340    342    344     1  0.0000000  0.6508444  3
    341    340    342    345     1  0.0000000  0.6508444  3
    343    340    342    346     1  0.0000000  0.6508444  3
    343    340    342    344     1  0.0000000  0.6508444  3
    343    340    342    345     1  0.0000000  0.6508444  3
    344    342    346    347     1  0.0000000  3.3472000  1
    344    342    346    347     1  0.0000000  0.0000000  2
    344    342    346    347     1  180.0000771  0.3347200  3
    344    342    346    348     1  0.0000000  3.3472000  1
    344    342    346    348     1  0.0000000  0.0000000  2
    344    342    346    348     1  180.0000771  0.3347200  3
    345    342    346    347     1  0.0000000  3.3472000  1
    345    342    346    347     1  0.0000000  0.0000000  2
    345    342    346    347     1  180.0000771  0.3347200  3
    345    342    346    348     1  0.0000000  3.3472000  1
    345    342    346    348     1  0.0000000  0.0000000  2
    345    342    346    348     1  180.0000771  0.3347200  3
    349    339    351    354     1  0.0000000  0.6508444  3
    349    339    351    352     1  0.0000000  0.6508444  3
    349    339    351    353     1  0.0000000  0.6508444  3
    350    339    351    354     1  0.0000000  0.6508444  3
    350    339    351    352     1  0.0000000  0.6508444  3
    350    339    351    353     1  0.0000000  0.6508444  3
    352    351    354    355     1  0.0000000  3.3472000  1
    352    351    354    355     1  0.0000000  0.0000000  2
    352    351    354    355     1  180.0000771  0.3347200  3
    352    351    354    356     1  0.0000000  3.3472000  1
    352    351    354    356     1  0.0000000  0.0000000  2
    352    351    354    356     1  180.0000771  0.3347200  3
    353    351    354    355     1  0.0000000  3.3472000  1
    353    351    354    355     1  0.0000000  0.0000000  2
    353    351    354    355     1  180.0000771  0.3347200  3
    353    351    354    356     1  0.0000000  3.3472000  1
    353    351    354    356     1  0.0000000  0.0000000  2
    353    351    354    356     1  180.0000771  0.3347200  3
     33     44     64     65     4  180.0000771  4.6024000  2
     34     69     89     90     4  180.0000771  4.6024000  2
     35     94    114    115     4  180.0000771  4.6024000  2
     36    119    139    140     4  180.0000771  4.6024000  2
     60    143    141    142     4  180.0000771  4.6024000  2
     61    170    168    169     4  180.0000771  4.6024000  2
     85    197    195    196     4  180.0000771  4.6024000  2
     86    224    222    223     4  180.0000771  4.6024000  2
    110    251    249    250     4  180.0000771  4.6024000  2
    111    278    276    277     4  180.0000771  4.6024000  2
    135    305    303    304     4  180.0000771  4.6024000  2
    136    332    330    331     4  180.0000771  4.6024000  2

;[ system ]
;; Name
;Generic title
;
;[ molecules ]
;; Compound       #mols
;g1.5_pamam         1
