G1.5-PAMAM in water
17093
    1aaa     C1    1   0.804   0.729   4.903 -0.0705  0.3101 -0.1961
    1aaa     H1    2   0.778   0.730   5.010  1.0407  0.3010  0.0897
    1aaa     H2    3   0.815   0.623   4.876 -3.4245  0.7961 -4.4509
    1aaa     C2    4   0.933   0.815   4.889  0.3421  0.2895  0.2626
    1aaa     H3    5   0.961   0.827   4.784 -1.0613  1.1237 -0.0425
    1aaa     H4    6   0.905   0.914   4.928 -0.5165  0.2183 -0.1698
    1aaa     N1    7   1.048   0.769   4.971 -0.5276 -0.0577 -0.4209
    1aaa     N2    8   0.690   0.777   4.828 -0.3119  0.4419 -0.0874
    1aaa     C3    9   0.710   0.775   4.677 -0.4616  0.0523  0.3239
    1aaa     H5   10   0.797   0.838   4.652  0.1394 -0.5649  0.8122
    1aaa     H6   11   0.624   0.815   4.621 -0.1336  1.0319  0.4941
    1aaa     C4   12   0.569   0.708   4.873 -0.6133 -0.7002 -0.4102
    1aaa     H7   13   0.579   0.600   4.855  2.1059 -0.9238  1.7424
    1aaa     H8   14   0.560   0.718   4.982 -1.7724 -1.2509 -0.4264
    1aaa     C5   15   1.037   0.805   5.112 -0.1372 -0.8592 -1.1338
    1aaa     H9   16   0.944   0.770   5.160  0.7390 -0.9522  0.5686
    1aaa    H10   17   1.119   0.755   5.166 -0.3034 -0.7354 -0.7587
    1aaa     C6   18   1.072   0.621   4.954  0.2108 -0.6914 -0.1305
    1aaa    H11   19   0.979   0.569   4.981  0.9287 -1.6232  0.6020
    1aaa    H12   20   1.144   0.586   5.029 -0.3789 -0.8526  0.3636
    1aaa     C7   21   1.062   0.956   5.135 -0.1007  0.4096  0.0527
    1aaa    H13   22   1.152   0.982   5.079  0.1258 -0.1668  0.1419
    1aaa    H14   23   0.973   1.010   5.101 -2.1699 -3.1285 -0.6924
    1aaa     C8   24   1.122   0.573   4.820 -0.0399 -0.2358  0.5801
    1aaa    H15   25   1.036   0.590   4.753  0.2784  0.3159  0.2985
    1aaa    H16   26   1.203   0.637   4.782 -0.1350 -0.3106  0.2429
    1aaa     C9   27   0.443   0.772   4.815  0.0369  0.2357  0.4957
    1aaa    H17   28   0.455   0.881   4.814  0.2048  0.2252  1.0170
    1aaa    H18   29   0.416   0.745   4.712  2.5533  3.0332 -1.0571
    1aaa    C10   30   0.734   0.627   4.618  0.6686 -0.2630  0.2555
    1aaa    H19   31   0.837   0.591   4.630 -0.2163 -2.7728  1.0199
    1aaa    H20   32   0.670   0.550   4.663 -1.7899  0.9318 -1.0236
    1aaa    C11   33   0.316   0.764   4.892  0.7957  0.5966  0.7564
    1aaa    C12   34   0.703   0.623   4.468  0.3197  0.0734  0.0870
    1aaa    C13   35   1.087   0.998   5.277 -0.0123  0.3412 -0.7419
    1aaa    C14   36   1.151   0.427   4.825  0.4797  0.0905 -0.3368
    1aaa     O1   37   0.248   0.865   4.918 -0.2525  0.5828 -0.1065
    1aaa     O2   38   1.179   0.950   5.346  0.1850  0.3501 -0.0831
    1aaa     O3   39   1.119   0.350   4.911  0.1609 -0.6143 -0.6050
    1aaa     O4   40   0.615   0.675   4.410  0.4340 -0.0759  0.6045
    2bbb     C1   41   0.140   0.533   5.111 -0.3953  0.3236 -0.0244
    2bbb     H1   42   0.041   0.502   5.146 -0.5613  2.5735  1.7919
    2bbb     H2   43   0.178   0.606   5.183 -1.1546  0.7799 -0.0720
    2bbb     C2   44   0.139   0.600   4.972  0.0468 -0.2561 -0.8598
    2bbb     H3   45   0.078   0.539   4.905 -0.8421 -3.4962  2.5741
    2bbb     H4   46   0.092   0.697   4.992  0.4379 -0.3121  0.4324
    2bbb     N1   47   0.237   0.417   5.122  0.6897 -0.7200  0.1843
    2bbb     C3   48   0.205   0.311   5.021  0.1891 -0.1674  0.1669
    2bbb     H5   49   0.212   0.372   4.929  0.0113  2.3222  1.6980
    2bbb     H6   50   0.101   0.278   5.027  0.5744 -1.4438 -0.0050
    2bbb     C4   51   0.241   0.351   5.251 -0.0423 -0.6975 -0.3447
    2bbb     H7   52   0.145   0.300   5.269 -0.5328  0.5116  0.6195
    2bbb     H8   53   0.324   0.280   5.247  1.1243  0.6999 -3.5418
    2bbb     C5   54   0.276   0.456   5.361 -0.1296 -0.3665  0.0581
    2bbb     H9   55   0.320   0.546   5.317 -0.0918  0.5477  1.8636
    2bbb    H10   56   0.190   0.490   5.420 -0.8730 -3.0014  0.5990
    2bbb     C6   57   0.306   0.203   5.010  0.4439 -0.0981 -0.3851
    2bbb    H11   58   0.413   0.227   5.007  1.0841 -2.6831 -0.1228
    2bbb    H12   59   0.287   0.129   5.089  0.6372  0.3508  0.0871
    2bbb     C7   60   0.366   0.403   5.465 -0.3918  0.2123  0.7048
    2bbb     C8   61   0.269   0.146   4.877 -0.3306 -0.5924  0.1999
    2bbb     O1   62   0.341   0.305   5.526 -0.1247 -0.3848 -0.5827
    2bbb     O2   63   0.166   0.085   4.857 -0.1080  0.3185  0.3768
    2bbb     N4   64   0.268   0.639   4.920 -0.2299 -0.3853  0.5513
    2bbb    H21   65   0.325   0.567   4.878 -0.4591  0.3725 -1.1600
    3bbb     C1   66   0.871   0.375   4.227  0.5664 -0.1620 -0.9052
    3bbb     H1   67   0.885   0.368   4.118 -1.8311 -1.5915 -1.1981
    3bbb     H2   68   0.814   0.287   4.260  0.2081  0.0909 -0.8512
    3bbb     C2   69   0.776   0.494   4.253 -0.2088  0.4488 -0.1230
    3bbb     H3   70   0.807   0.578   4.189 -0.6344  1.0274  0.4243
    3bbb     H4   71   0.671   0.473   4.229 -0.0339  1.2764 -1.7296
    3bbb     N1   72   1.005   0.389   4.288  0.5730  0.0108 -0.3661
    3bbb     C3   73   1.079   0.508   4.240 -0.0661 -0.1165  0.0543
    3bbb     H5   74   1.020   0.570   4.172  2.2424  2.5276  0.2845
    3bbb     H6   75   1.165   0.487   4.175  0.3082 -0.0503  0.5223
    3bbb     C4   76   1.097   0.279   4.276 -0.5994  0.2453 -0.0306
    3bbb     H7   77   1.124   0.260   4.171 -0.1595 -0.5662  0.2209
    3bbb     H8   78   1.185   0.305   4.336 -1.2191  0.4711  0.7924
    3bbb     C5   79   1.022   0.159   4.334 -0.3438 -0.4558  0.6260
    3bbb     H9   80   0.966   0.201   4.418  2.5632  3.3124  0.9369
    3bbb    H10   81   0.965   0.128   4.246 -1.3538  0.8985  0.7828
    3bbb     C6   82   1.122   0.581   4.360  0.1167  0.8990  0.0817
    3bbb    H11   83   1.038   0.626   4.415 -1.2094  1.2494 -2.1084
    3bbb    H12   84   1.185   0.522   4.428  0.1907 -3.4164 -3.3231
    3bbb     C7   85   1.115   0.051   4.368 -0.1354 -0.1101 -0.0567
    3bbb     C8   86   1.196   0.696   4.307  0.2937  0.2691 -0.0708
    3bbb     O1   87   1.218   0.023   4.311 -0.2480  0.1115  0.2834
    3bbb     O2   88   1.153   0.770   4.224  0.0265 -0.0130 -0.4204
    3bbb     N4   89   0.787   0.540   4.392 -0.3730 -0.1208 -0.5185
    3bbb    H21   90   0.864   0.500   4.444 -1.6694  0.9611  2.4644
    4bbb     C1   91   0.916   1.288   5.459 -0.1171  0.1439 -0.4065
    4bbb     H1   92   0.986   1.348   5.400 -0.0985 -3.4998 -4.6087
    4bbb     H2   93   0.919   1.328   5.561  0.9235  3.0294 -1.4457
    4bbb     C2   94   0.989   1.152   5.458 -0.6106  1.1837  0.0471
    4bbb     H3   95   1.091   1.163   5.497 -0.2794 -0.3970 -0.3217
    4bbb     H4   96   0.944   1.075   5.521  0.8188  1.3678  1.3563
    4bbb     N1   97   0.782   1.264   5.406  0.1399 -1.1459 -0.2388
    4bbb     C3   98   0.736   1.395   5.367  0.7504 -0.1919  0.6350
    4bbb     H5   99   0.741   1.461   5.455  0.9489 -1.3348  1.5014
    4bbb     H6  100   0.631   1.402   5.337  1.4984 -1.0211 -2.4586
    4bbb     C4  101   0.700   1.194   5.505 -0.7386 -0.5969  0.4081
    4bbb     H7  102   0.754   1.113   5.556 -0.9543 -0.4495  0.8737
    4bbb     H8  103   0.669   1.269   5.579  0.6484 -0.0691  0.4973
    4bbb     C5  104   0.584   1.142   5.420 -0.2465 -0.0311  0.0331
    4bbb     H9  105   0.527   1.079   5.490 -1.7151  1.8988  0.6686
    4bbb    H10  106   0.524   1.221   5.375  0.7870 -0.5257 -2.3462
    4bbb     C6  107   0.815   1.460   5.250 -0.5333 -0.4862 -0.5519
    4bbb    H11  108   0.921   1.474   5.271 -1.1087  0.0739  2.4679
    4bbb    H12  109   0.820   1.391   5.165 -0.2510 -0.4204 -0.5872
    4bbb     C7  110   0.626   1.054   5.301 -0.5534 -0.0885  0.1597
    4bbb     C8  111   0.756   1.591   5.198  0.6847 -0.8373 -0.3676
    4bbb     O1  112   0.673   0.942   5.315 -0.0919  0.0663  0.7661
    4bbb     O2  113   0.636   1.607   5.172 -0.5903 -0.1459 -0.0113
    4bbb     N4  114   0.992   1.086   5.325 -0.1183  0.1948  0.9693
    4bbb    H21  115   0.921   1.104   5.255  2.1610 -0.1276 -1.6291
    5bbb     C1  116   1.371   0.173   4.738  0.9727 -0.1455  0.5338
    5bbb     H1  117   1.393   0.074   4.695 -0.6318 -0.0338 -0.6541
    5bbb     H2  118   1.335   0.164   4.842 -1.5814  0.6971 -0.1979
    5bbb     C2  119   1.238   0.236   4.679 -1.0131  1.3714  0.5573
    5bbb     H3  120   1.252   0.224   4.571  1.1864 -1.4062  1.0365
    5bbb     H4  121   1.149   0.181   4.711 -0.7862 -0.0732 -1.1749
    5bbb     N1  122   1.485   0.263   4.733  0.0510 -0.4511  0.1423
    5bbb     C3  123   1.537   0.277   4.597 -0.2281 -0.4797  0.4244
    5bbb     H5  124   1.460   0.253   4.524  0.0101 -0.1001  0.0440
    5bbb     H6  125   1.622   0.209   4.584  0.2943  0.2576 -0.0917
    5bbb     C4  126   1.588   0.244   4.840 -0.0290 -0.1931 -0.5741
    5bbb     H7  127   1.621   0.140   4.851 -0.6804 -0.3268  0.1996
    5bbb     H8  128   1.674   0.306   4.811 -1.4393  1.7619 -0.7437
    5bbb     C5  129   1.545   0.299   4.968 -0.1111  0.5983  0.1234
    5bbb     H9  130   1.528   0.407   4.959  1.8369  1.0055  0.6771
    5bbb    H10  131   1.453   0.248   4.996  0.0261 -0.3560 -1.1005
    5bbb     C6  132   1.600   0.417   4.575 -0.1610  0.1330 -0.3269
    5bbb    H11  133   1.701   0.410   4.616  0.3210  0.1254 -1.4690
    5bbb    H12  134   1.617   0.440   4.469  0.4106 -1.3965 -0.5892
    5bbb     C7  135   1.640   0.280   5.083 -0.6548  0.3797  0.2153
    5bbb     C8  136   1.523   0.528   4.638 -0.0171  0.4083  0.2026
    5bbb     O1  137   1.760   0.293   5.063  0.2308  0.2630  0.4789
    5bbb     O2  138   1.416   0.560   4.593  1.6864  0.6281  0.2632
    5bbb     N4  139   1.211   0.377   4.717 -0.1470  0.4674  0.5494
    5bbb    H21  140   1.262   0.443   4.659  1.3876  0.8382  2.2334
    6ccc     N1  141   0.456   0.491   5.511 -1.0338 -0.1999 -0.2137
    6ccc     H4  142   0.458   0.581   5.464 -0.7664 -0.8089 -1.3911
    6ccc     C3  143   0.533   0.485   5.635  0.5137  0.2274  0.0149
    6ccc     H5  144   0.481   0.559   5.698 -0.8219  0.6098 -1.4668
    6ccc     C4  145   0.681   0.528   5.628  0.3702 -0.3957  0.4353
    6ccc     H6  146   0.523   0.382   5.671  0.0518  0.4216  0.4630
    6ccc     H7  147   0.715   0.566   5.726  2.2302  2.3929 -1.1542
    6ccc     H8  148   0.688   0.611   5.556 -1.4239 -1.1738 -0.6976
    6ccc     N2  149   0.760   0.411   5.579  0.0020 -1.0449 -0.1953
    6ccc     C5  150   0.765   0.399   5.426  0.4788 -0.1587  0.0564
    6ccc     C6  151   0.888   0.398   5.650 -0.0617 -0.1420 -0.0948
    6ccc     H9  152   0.963   0.476   5.633 -1.4862  1.1487 -0.6998
    6ccc     C7  153   0.956   0.259   5.623  0.7097  0.0169  0.7677
    6ccc    H10  154   0.868   0.408   5.758  0.7282  3.8182 -0.1725
    6ccc    H11  155   0.882   0.182   5.599  0.4511 -0.2992  2.4634
    6ccc    H12  156   1.005   0.233   5.717  3.2136 -2.8945 -1.1339
    6ccc     C8  157   1.059   0.275   5.502 -0.1363 -0.0555 -0.1103
    6ccc     O2  158   1.159   0.354   5.504  0.4923 -0.5766  0.1501
    6ccc     O3  159   1.045   0.215   5.393 -0.1508  0.1547 -0.7660
    6ccc    H13  160   0.666   0.391   5.380  0.3559 -1.0696  0.4684
    6ccc    H14  161   0.807   0.304   5.391  0.4029  0.2489 -1.1716
    6ccc     C9  162   0.863   0.496   5.348  0.3262 -0.8318 -0.2707
    6ccc    H15  163   0.956   0.495   5.406  0.0003  3.2132  0.6284
    6ccc    H16  164   0.830   0.600   5.354  0.9385 -0.6869  0.6677
    6ccc    C10  165   0.894   0.446   5.207  0.4037  0.2712 -0.0569
    6ccc     O4  166   1.007   0.405   5.188 -0.4599 -0.5997 -0.2244
    6ccc     O5  167   0.809   0.429   5.117 -0.0546 -0.8682 -0.3082
    7ccc     N1  168   0.366   0.152   4.779  0.4632  0.2642 -0.0701
    7ccc     H4  169   0.451   0.204   4.797  0.9640  0.0935 -1.7205
    7ccc     C3  170   0.348   0.099   4.644  0.0446 -0.4689  0.3964
    7ccc     H5  171   0.313  -0.005   4.639  0.1736 -0.4555 -2.7068
    7ccc     C4  172   0.469   0.115   4.554 -0.7979  0.2563  0.2171
    7ccc     H6  173   0.267   0.159   4.601  0.8269  0.8080  0.6647
    7ccc     H7  174   0.476   0.223   4.536  0.4139  0.1006 -0.3659
    7ccc     H8  175   0.460   0.060   4.460  1.5000  1.6313 -0.8967
    7ccc     N2  176   0.599   0.067   4.608 -0.7140 -0.5273 -0.2228
    7ccc     C5  177   0.629  -0.075   4.594  0.3158  0.1872  0.6552
    7ccc     C6  178   0.722   0.151   4.585  0.1317  0.5878  0.2099
    7ccc     H9  179   0.814   0.099   4.612 -1.2449 -2.0931  0.0840
    7ccc     C7  180   0.715   0.288   4.635 -0.7357 -0.8388  0.1729
    7ccc    H10  181   0.735   0.165   4.477  0.9273 -0.1662  0.2076
    7ccc    H11  182   0.643   0.347   4.578  1.5021  1.5149 -0.4154
    7ccc    H12  183   0.809   0.341   4.615 -0.8839 -0.7009 -0.1628
    7ccc     C8  184   0.691   0.297   4.787  0.0997  0.5400 -0.1034
    7ccc     O2  185   0.581   0.324   4.821 -0.3774  0.2167 -0.1413
    7ccc     O3  186   0.779   0.305   4.867 -0.5756 -0.0948 -0.4802
    7ccc    H13  187   0.537  -0.134   4.597 -0.0720  0.8278  2.0242
    7ccc    H14  188   0.696  -0.123   4.667  0.5217 -0.9934 -0.2811
    7ccc     C9  189   0.686  -0.107   4.455  0.4551  0.1247 -0.2249
    7ccc    H15  190   0.793  -0.084   4.454  0.7334 -0.8169  1.7353
    7ccc    H16  191   0.629  -0.059   4.376 -0.2257 -0.1062  0.1171
    7ccc    C10  192   0.687  -0.262   4.416 -0.9942 -0.5285  0.6739
    7ccc     O4  193   0.632  -0.345   4.483  0.6196  0.0710  0.1872
    7ccc     O5  194   0.746  -0.307   4.318 -1.2994 -0.3157  0.2131
    8ccc     N1  195   1.074  -0.036   4.464 -0.3798 -0.4217  0.4670
    8ccc     H4  196   0.981  -0.035   4.504 -0.0798  2.0107  1.2919
    8ccc     C3  197   1.158  -0.145   4.511 -0.8333  0.3305  0.6278
    8ccc     H5  198   1.121  -0.234   4.458  1.4322 -0.7203  0.6742
    8ccc     C4  199   1.140  -0.164   4.663 -0.0641  0.5256  0.8677
    8ccc     H6  200   1.266  -0.138   4.491 -0.7957 -1.5935 -0.0777
    8ccc     H7  201   1.171  -0.069   4.708 -0.3090  1.4015 -0.7259
    8ccc     H8  202   1.195  -0.252   4.698 -0.7553 -0.0357  0.5603
    8ccc     N2  203   0.992  -0.189   4.697 -0.4270 -0.3576  0.5089
    8ccc     C5  204   0.961  -0.177   4.847 -0.1061 -0.3082  1.1748
    8ccc     C6  205   0.925  -0.306   4.631 -0.2768  0.0844  0.0386
    8ccc     H9  206   0.818  -0.302   4.654 -0.3108 -0.5669  0.0209
    8ccc     C7  207   0.965  -0.449   4.673 -0.0787 -0.3762 -0.6652
    8ccc    H10  208   0.948  -0.298   4.524 -1.4030 -0.9782 -0.3142
    8ccc    H11  209   0.951  -0.464   4.781 -1.9662 -0.3842 -0.8713
    8ccc    H12  210   1.071  -0.466   4.655 -0.0759 -0.6411 -0.3973
    8ccc     C8  211   0.878  -0.551   4.591 -0.0639 -0.8310  0.0739
    8ccc     O2  212   0.763  -0.572   4.625 -0.0858  0.0329 -0.2049
    8ccc     O3  213   0.901  -0.576   4.473  0.6095 -0.1570  0.0852
    8ccc    H13  214   1.026  -0.248   4.899  0.2057 -2.4396 -1.8270
    8ccc    H14  215   0.856  -0.207   4.857 -0.0279 -1.3774 -0.7443
    8ccc     C9  216   0.966  -0.025   4.897  0.1976 -0.0802 -0.6203
    8ccc    H15  217   0.913   0.045   4.831 -1.1493  1.6009  2.0778
    8ccc    H16  218   1.073  -0.003   4.882 -0.2947  1.5810 -2.0414
    8ccc    C10  219   0.951  -0.004   5.054 -0.1582 -0.1452  0.1902
    8ccc     O4  220   0.929   0.114   5.092 -0.0306 -0.0052  0.0621
    8ccc     O5  221   0.948  -0.094   5.132 -0.8747 -0.1382  0.5977
    9ccc     N1  222   1.324   0.710   4.362  0.0165 -0.6423 -0.2903
    9ccc     H4  223   1.358   0.632   4.417 -2.5390 -2.3399 -0.9729
    9ccc     C3  224   1.398   0.835   4.351 -0.2328 -0.2169  0.1896
    9ccc     H5  225   1.414   0.862   4.245  2.4259  0.2760  0.6257
    9ccc     C4  226   1.536   0.828   4.424 -0.1282 -0.1396  0.1546
    9ccc     H6  227   1.344   0.921   4.391  2.4123  1.4881  0.3499
    9ccc     H7  228   1.600   0.758   4.369  2.5006  2.2330 -0.0880
    9ccc     H8  229   1.517   0.789   4.524 -0.2392 -1.8391 -0.5085
    9ccc     N2  230   1.617   0.952   4.425  0.2272  0.8041  0.5525
    9ccc     C5  231   1.555   1.073   4.487 -0.5215 -0.3214 -0.1040
    9ccc     C6  232   1.759   0.919   4.456  0.3157  0.7273  0.2942
    9ccc     H9  233   1.757   0.875   4.556  0.3091 -4.5369 -1.6879
    9ccc     C7  234   1.854   1.040   4.449 -0.0999 -0.7895  0.1698
    9ccc    H10  235   1.797   0.839   4.390 -0.6686 -0.5435  1.2099
    9ccc    H11  236   1.830   1.122   4.518 -0.4199  0.1123 -0.9709
    9ccc    H12  237   1.846   1.098   4.356 -3.0399  0.7717  1.2543
    9ccc     C8  238   2.007   1.016   4.480 -0.7419 -0.0464  0.7566
    9ccc     O2  239   2.055   1.035   4.583 -0.2017  0.0153  0.3619
    9ccc     O3  240   2.071   0.944   4.407 -0.5290  0.8413  0.3681
    9ccc    H13  241   1.460   1.089   4.436 -0.9680 -1.3670  0.3670
    9ccc    H14  242   1.621   1.160   4.471  0.0681 -0.7160  0.1235
    9ccc     C9  243   1.532   1.075   4.639 -0.4917  0.6405  0.0402
    9ccc    H15  244   1.626   1.038   4.683  0.8528  1.6808 -1.8239
    9ccc    H16  245   1.452   1.011   4.678  0.6057  0.3396  1.9677
    9ccc    C10  246   1.497   1.209   4.693 -0.6790 -0.1685 -0.4777
    9ccc     O4  247   1.584   1.290   4.729  0.3579  0.6774  0.5675
    9ccc     O5  248   1.381   1.236   4.709  0.0679  0.6508 -0.6489
   10ccc     N1  249   0.606   1.106   5.179 -0.5046 -0.6174  0.3674
   10ccc     H4  250   0.577   1.203   5.177 -2.2270 -1.0140  2.4912
   10ccc     C3  251   0.624   1.023   5.051 -0.3376 -0.1329  0.1081
   10ccc     H5  252   0.724   0.978   5.047 -0.1443  0.3101 -0.1350
   10ccc     C4  253   0.592   1.098   4.920  0.1586  0.6455  0.3975
   10ccc     H6  254   0.551   0.944   5.071  0.0661 -0.6785 -0.5387
   10ccc     H7  255   0.486   1.122   4.928 -0.1945 -0.8352  0.3626
   10ccc     H8  256   0.591   1.030   4.834 -1.3767 -0.5212  1.2875
   10ccc     N2  257   0.669   1.224   4.901  0.1051  0.1460  0.0658
   10ccc     C5  258   0.816   1.210   4.892  0.4415  1.4152 -0.1997
   10ccc     C6  259   0.594   1.345   4.840 -0.5636 -0.2314  0.0209
   10ccc     H9  260   0.491   1.340   4.877 -0.9070  1.2605 -0.6957
   10ccc     C7  261   0.587   1.330   4.688  1.0731 -0.4416 -0.4460
   10ccc    H10  262   0.639   1.439   4.872  0.0209 -0.8986  1.2263
   10ccc    H11  263   0.525   1.242   4.667  0.2345 -0.7428  2.7475
   10ccc    H12  264   0.688   1.317   4.646  2.6068  1.4384  2.3297
   10ccc     C8  265   0.511   1.453   4.630  0.3016  0.5503 -0.2633
   10ccc     O2  266   0.565   1.539   4.566 -0.4714  0.2558  0.4168
   10ccc     O3  267   0.396   1.481   4.662 -0.2257  0.3156 -0.2940
   10ccc    H13  268   0.833   1.137   4.812  1.0139  1.9058 -0.5395
   10ccc    H14  269   0.855   1.155   4.978  1.9373  2.0253 -0.4502
   10ccc     C9  270   0.901   1.342   4.872  1.1489 -0.6145  1.2985
   10ccc    H15  271   0.881   1.414   4.951 -0.9570  0.3361 -0.0306
   10ccc    H16  272   0.871   1.382   4.774 -0.5990 -1.4725  1.4404
   10ccc    C10  273   1.051   1.316   4.867 -0.2675  0.4491  0.0186
   10ccc     O4  274   1.102   1.280   4.761 -0.1851 -0.1711 -0.2688
   10ccc     O5  275   1.117   1.287   4.972 -0.1619 -0.7761  0.6873
   11ccc     N1  276   0.854   1.684   5.167 -0.2076  0.0218  0.4949
   11ccc     H4  277   0.947   1.661   5.200  0.0279  0.3793  0.0819
   11ccc     C3  278   0.831   1.813   5.108 -0.0532 -0.0029  0.4134
   11ccc     H5  279   0.735   1.815   5.056 -0.9323  0.4563  1.9885
   11ccc     C4  280   0.945   1.847   5.016 -0.0042  0.1631 -0.7591
   11ccc     H6  281   0.831   1.882   5.193  0.4701  0.3302  0.1521
   11ccc     H7  282   1.040   1.830   5.069 -0.0360 -1.0013 -1.0516
   11ccc     H8  283   0.927   1.953   4.995 -2.4028 -0.0639 -0.1439
   11ccc     N2  284   0.949   1.773   4.883 -0.0777  0.4181  1.0041
   11ccc     C5  285   1.035   1.654   4.887 -0.4474 -0.0730  0.8785
   11ccc     C6  286   0.819   1.751   4.815 -0.6913 -0.3624 -0.0664
   11ccc     H9  287   0.835   1.708   4.716  0.0882  1.7426 -0.9176
   11ccc     C7  288   0.733   1.882   4.800  0.1253 -0.0513  0.2510
   11ccc    H10  289   0.752   1.691   4.877 -0.5108  2.0296  2.6524
   11ccc    H11  290   0.781   1.961   4.741  1.6285  0.0509  1.5467
   11ccc    H12  291   0.707   1.934   4.893 -2.3536 -0.2272 -0.2870
   11ccc     C8  292   0.603   1.841   4.733 -0.2288  0.4687  0.2495
   11ccc     O2  293   0.598   1.813   4.613 -0.0309  0.4887  0.0925
   11ccc     O3  294   0.502   1.797   4.784  0.8842  0.5316  0.4263
   11ccc    H13  295   1.014   1.589   4.801  2.1641  0.3748 -0.1797
   11ccc    H14  296   1.013   1.592   4.975 -0.6843 -0.0717  0.8216
   11ccc     C9  297   1.184   1.685   4.893 -0.0151 -0.1684 -0.1471
   11ccc    H15  298   1.214   1.724   4.990  0.6588 -1.6462  0.2775
   11ccc    H16  299   1.198   1.760   4.814  0.1584 -0.0282  0.0189
   11ccc    C10  300   1.272   1.559   4.870  0.2740  0.2326 -0.0845
   11ccc     O4  301   1.325   1.499   4.964 -0.6288  0.5505  0.8624
   11ccc     O5  302   1.304   1.527   4.754 -0.4735  0.3073  0.1408
   12ccc     N1  303   1.578   0.245   5.204  0.2183 -0.3392 -0.1329
   12ccc     H4  304   1.478   0.241   5.212  0.3563 -1.4656  1.9424
   12ccc     C3  305   1.644   0.242   5.336  0.4264  0.1147 -0.1839
   12ccc     H5  306   1.697   0.146   5.344  2.8733  0.9340 -3.9563
   12ccc     C4  307   1.535   0.243   5.447  0.4727 -0.2398 -0.5003
   12ccc     H6  308   1.721   0.319   5.351  1.1839 -0.2766 -1.8057
   12ccc     H7  309   1.446   0.286   5.398  1.3576  2.4779  0.0842
   12ccc     H8  310   1.561   0.326   5.513 -1.9674  0.7143 -0.6153
   12ccc     N2  311   1.488   0.117   5.513 -0.1324  0.7129 -0.3985
   12ccc     C5  312   1.595   0.037   5.579  0.9302 -0.2454 -0.5721
   12ccc     C6  313   1.414   0.030   5.414  0.3162 -0.6485  0.9049
   12ccc     H9  314   1.368   0.096   5.339  0.7427  0.2383  1.4112
   12ccc     C7  315   1.300  -0.038   5.484 -0.9207  0.2843 -0.0606
   12ccc    H10  316   1.481  -0.030   5.350 -0.0491  1.8289 -2.0577
   12ccc    H11  317   1.242   0.039   5.537 -0.8146 -0.0148  0.5001
   12ccc    H12  318   1.337  -0.098   5.568 -1.8994  1.5795  1.3616
   12ccc     C8  319   1.204  -0.118   5.398  0.0595 -0.8363 -0.3442
   12ccc     O2  320   1.083  -0.094   5.400 -0.0521 -0.2461  0.0593
   12ccc     O3  321   1.238  -0.216   5.342  0.3983  0.6740 -0.1401
   12ccc    H13  322   1.650  -0.011   5.497  1.0937 -0.2699 -0.4481
   12ccc    H14  323   1.555  -0.046   5.638 -0.5918 -0.1703 -1.4344
   12ccc     C9  324   1.683   0.120   5.671 -0.2529 -0.5634  0.7964
   12ccc    H15  325   1.633   0.148   5.765  0.1575 -2.5612  1.6553
   12ccc    H16  326   1.707   0.218   5.627  0.8785 -0.8157  0.8228
   12ccc    C10  327   1.805   0.043   5.701 -0.5032 -0.5701 -0.1516
   12ccc     O4  328   1.795  -0.038   5.792 -0.0185 -0.4053 -0.1433
   12ccc     O5  329   1.910   0.054   5.635  0.8829  0.8496 -0.2715
   13ccc     N1  330   1.584   0.600   4.739  0.2274 -0.3111 -0.2193
   13ccc     H4  331   1.677   0.569   4.766 -0.0288 -0.4573  0.5213
   13ccc     C3  332   1.507   0.692   4.827  0.1505  0.5337 -0.1140
   13ccc     H5  333   1.475   0.780   4.769  0.9917  0.6234 -0.4503
   13ccc     C4  334   1.600   0.736   4.937 -0.5755  0.0768 -0.0046
   13ccc     H6  335   1.415   0.647   4.868  0.1172 -0.5642 -1.3205
   13ccc     H7  336   1.685   0.793   4.896 -1.0323 -0.3929 -1.6741
   13ccc     H8  337   1.645   0.648   4.983 -1.4980  0.8752  2.5819
   13ccc     N2  338   1.534   0.818   5.041 -0.8160 -0.6131  0.1242
   13ccc     C5  339   1.433   0.744   5.117 -0.1765  0.1882  0.8707
   13ccc     C6  340   1.490   0.948   5.000  0.2837 -0.9725  0.2334
   13ccc     H9  341   1.464   0.952   4.894  1.6855  3.1584 -0.1318
   13ccc     C7  342   1.588   1.063   5.029 -0.4643  0.5123 -0.3567
   13ccc    H10  343   1.402   0.967   5.063  0.7130 -1.6466  1.0761
   13ccc    H11  344   1.672   1.053   4.959  0.1984 -2.9936  0.7835
   13ccc    H12  345   1.626   1.054   5.131  1.2152  1.1938 -0.8727
   13ccc     C8  346   1.526   1.207   5.018  0.0977  0.6305 -0.7317
   13ccc     O2  347   1.411   1.221   4.980  0.2117 -0.0457 -1.5615
   13ccc     O3  348   1.599   1.302   5.024 -0.2298  0.0516 -0.0050
   13ccc    H13  349   1.341   0.712   5.068  0.1860  1.3367 -0.6484
   13ccc    H14  350   1.417   0.810   5.203 -1.2543  1.0501  0.0370
   13ccc     C9  351   1.488   0.618   5.184  0.8213 -0.0019 -0.5391
   13ccc    H15  352   1.585   0.644   5.228  1.1387 -0.9808 -0.6340
   13ccc    H16  353   1.506   0.530   5.122 -0.0632 -0.5658 -0.0192
   13ccc    C10  354   1.397   0.580   5.302  0.3413 -0.2187  0.6007
   13ccc     O4  355   1.308   0.494   5.288 -0.1764 -0.7274 -0.0334
   13ccc     O5  356   1.395   0.644   5.407  0.0092 -0.2472  0.4037
   14SOL     OW  357   5.298   5.102   4.315 -0.2882  0.4804 -0.3485
   14SOL    HW1  358   5.372   5.160   4.332  0.7656 -0.5794 -1.0851
   14SOL    HW2  359   5.338   5.025   4.273 -1.2240 -1.9207  2.7894
   15SOL     OW  360   3.104   4.692   4.019 -0.1865  0.3328  0.1942
   15SOL    HW1  361   3.173   4.734   3.968  0.6355 -0.2915  0.7602
   15SOL    HW2  362   3.026   4.744   4.002  0.6111  1.5638  0.1905
   16SOL     OW  363   2.915   1.718   2.506 -0.6156 -0.5612  0.9322
   16SOL    HW1  364   2.840   1.658   2.498 -1.8801  1.0560 -0.0809
   16SOL    HW2  365   2.991   1.664   2.484 -1.5731 -2.0305  1.0430
   17SOL     OW  366   5.187   0.311   1.367 -0.0005 -0.0319  0.1816
   17SOL    HW1  367   5.163   0.293   1.457 -1.0184  1.2797  0.2094
   17SOL    HW2  368   5.240   0.391   1.372  0.6094 -0.3962 -0.3141
   18SOL     OW  369   3.162   0.865   5.029 -0.0444  0.0411 -0.5709
   18SOL    HW1  370   3.184   0.784   4.984  1.2951 -0.1718  0.4078
   18SOL    HW2  371   3.090   0.842   5.087  1.1746 -0.8251  0.6704
   19SOL     OW  372   0.352   2.986   3.707 -0.1585  0.0803 -0.0094
   19SOL    HW1  373   0.310   2.913   3.661  0.1286  1.1722 -2.1141
   19SOL    HW2  374   0.439   2.993   3.668  1.2152 -0.6452  2.6669
   20SOL     OW  375   2.754   4.344   0.136 -0.2309  0.4444 -0.6352
   20SOL    HW1  376   2.728   4.436   0.146  0.4979  0.6679 -0.7454
   20SOL    HW2  377   2.849   4.346   0.130 -0.2791 -0.1835 -2.0185
   21SOL     OW  378   3.981   0.026   1.954  0.1647 -0.0372  0.1211
   21SOL    HW1  379   3.929  -0.053   1.935 -0.6659  0.4834  0.1882
   21SOL    HW2  380   4.009   0.057   1.868  0.6174 -0.4833  0.1033
   22SOL     OW  381   1.053   2.859   0.339 -0.5225  0.0821  0.1314
   22SOL    HW1  382   1.060   2.805   0.417  0.3500  1.1695  0.8445
   22SOL    HW2  383   1.113   2.932   0.355 -1.0794  0.8547 -1.1242
   23SOL     OW  384   0.388   3.157   3.309 -0.0167 -0.0857  0.2549
   23SOL    HW1  385   0.348   3.236   3.346 -2.3997 -0.9101 -0.3807
   23SOL    HW2  386   0.443   3.190   3.238  1.5780  1.1965  1.9745
   24SOL     OW  387   0.781   3.813   0.761 -0.2290 -0.3424  0.2684
   24SOL    HW1  388   0.719   3.802   0.833  2.2382 -0.6598  2.4888
   24SOL    HW2  389   0.784   3.727   0.719 -3.0805  0.3156 -1.5920
   25SOL     OW  390   2.510   0.641   4.524 -0.1425 -0.1840 -0.3126
   25SOL    HW1  391   2.507   0.727   4.483 -0.0450  0.3017  0.6734
   25SOL    HW2  392   2.507   0.580   4.451 -0.3803  0.6495 -1.0176
   26SOL     OW  393   1.571   4.096   1.656 -0.0853  0.1134 -0.2392
   26SOL    HW1  394   1.533   4.165   1.601  0.8474  1.1466  0.3552
   26SOL    HW2  395   1.655   4.133   1.686 -0.2171 -0.7149  1.2544
   27SOL     OW  396   1.828   1.787   1.775  0.2551  0.1875 -0.4759
   27SOL    HW1  397   1.896   1.727   1.806  0.8364  0.8928 -0.3506
   27SOL    HW2  398   1.749   1.733   1.769  0.5347 -0.3672  0.5652
   28SOL     OW  399   3.903   4.453   1.609  0.0118  0.4709 -0.1414
   28SOL    HW1  400   3.811   4.472   1.623 -0.4070  1.5150 -3.4107
   28SOL    HW2  401   3.948   4.535   1.628  0.3462 -0.0702  1.5679
   29SOL     OW  402   2.189   1.638   4.473 -0.1868  0.0660 -0.0733
   29SOL    HW1  403   2.164   1.672   4.387  0.8113 -1.7093 -1.1487
   29SOL    HW2  404   2.110   1.593   4.504 -0.1674 -0.4215 -0.6990
   30SOL     OW  405   0.899   2.142   0.489  0.2448  0.2323  0.2035
   30SOL    HW1  406   0.911   2.093   0.407 -1.2004  1.2002 -0.6281
   30SOL    HW2  407   0.844   2.085   0.543  1.4648 -0.5489  0.6686
   31SOL     OW  408   3.233   0.688   0.426 -0.4688 -0.0258 -0.2593
   31SOL    HW1  409   3.164   0.629   0.457 -0.9615  0.7772  0.1935
   31SOL    HW2  410   3.269   0.728   0.505  0.9156 -0.8409 -0.4394
   32SOL     OW  411   0.373   5.090   0.928  0.4495 -0.2257  0.0926
   32SOL    HW1  412   0.413   5.176   0.943  0.2049 -0.4499  2.4326
   32SOL    HW2  413   0.282   5.101   0.954  0.1010 -0.9020 -0.7941
   33SOL     OW  414   4.724   3.069   3.444  0.1522 -0.1466  0.5753
   33SOL    HW1  415   4.659   2.999   3.436 -0.4261  0.4295  0.0870
   33SOL    HW2  416   4.672   3.149   3.445  0.7616  0.2566  1.8119
   34SOL     OW  417   3.096   0.456   0.094  0.2799 -0.5158 -0.6682
   34SOL    HW1  418   3.077   0.407   0.175 -0.2747 -0.3321 -0.6821
   34SOL    HW2  419   3.025   0.431   0.034  0.4400 -0.3051 -0.9443
   35SOL     OW  420   1.031   3.437   4.836  0.4279 -0.0128 -0.2860
   35SOL    HW1  421   1.125   3.455   4.837  0.0240  2.3911  1.1221
   35SOL    HW2  422   1.010   3.431   4.743  1.6040  1.7785 -0.7194
   36SOL     OW  423   0.230   2.197   1.810 -0.8937 -0.5371 -0.1183
   36SOL    HW1  424   0.248   2.104   1.818  0.9630 -0.3601 -1.5726
   36SOL    HW2  425   0.258   2.235   1.893 -0.1997 -1.0960 -0.0901
   37SOL     OW  426   1.022   2.835   2.249 -0.3815 -0.3310  0.0819
   37SOL    HW1  427   0.969   2.892   2.305 -1.6447  0.8005 -2.1262
   37SOL    HW2  428   1.088   2.894   2.212  0.7568 -1.1676  0.7185
   38SOL     OW  429   1.053   1.796   4.582 -0.0060 -0.1320  0.0798
   38SOL    HW1  430   1.043   1.797   4.677 -1.2297 -0.2841 -0.0327
   38SOL    HW2  431   0.970   1.830   4.548 -0.0283 -1.1489 -0.9645
   39SOL     OW  432   5.019   2.487   1.859  0.1317 -0.7296 -0.3207
   39SOL    HW1  433   5.072   2.424   1.811  0.2299 -1.1826  0.3729
   39SOL    HW2  434   4.982   2.437   1.932  1.5874  0.3565  1.2520
   40SOL     OW  435   4.228   3.954   1.572 -0.0157  0.2811 -0.4400
   40SOL    HW1  436   4.168   3.882   1.554  0.7960 -0.4039 -0.4799
   40SOL    HW2  437   4.315   3.917   1.556  0.4248  1.2227 -0.2932
   41SOL     OW  438   4.219   5.517   2.594 -0.0231 -0.0600  0.5246
   41SOL    HW1  439   4.288   5.513   2.661 -1.0839 -1.0937  1.5979
   41SOL    HW2  440   4.144   5.555   2.640 -0.0273  1.6621 -0.7994
   42SOL     OW  441   3.834   2.510   5.083 -0.2334 -0.4251  0.1084
   42SOL    HW1  442   3.825   2.428   5.132  0.5155 -0.3310  0.4241
   42SOL    HW2  443   3.839   2.483   4.991  1.4440 -0.8751  0.2948
   43SOL     OW  444   0.313   3.815   4.562  0.4354 -0.1092 -0.4389
   43SOL    HW1  445   0.371   3.794   4.635 -1.3955  2.4461  1.9735
   43SOL    HW2  446   0.352   3.893   4.522 -0.1295  0.3056 -0.2042
   44SOL     OW  447   3.355   2.351   4.975 -0.6036  0.5915 -0.2885
   44SOL    HW1  448   3.300   2.367   5.051  1.5084 -0.9736  1.7379
   44SOL    HW2  449   3.435   2.401   4.992  0.3255 -0.6049 -0.8957
   45SOL     OW  450   4.031   2.502   0.924  1.1443 -0.0466 -0.1422
   45SOL    HW1  451   4.027   2.496   0.829 -4.2069 -0.1826 -0.2080
   45SOL    HW2  452   4.047   2.412   0.953 -0.4915 -0.6539 -1.0003
   46SOL     OW  453   2.783   1.848   3.947 -0.1053  0.4444  0.1098
   46SOL    HW1  454   2.728   1.818   3.875  3.0503 -0.1849 -2.2675
   46SOL    HW2  455   2.816   1.933   3.919 -0.7014  1.3482  2.0025
   47SOL     OW  456   3.659   1.777   0.249 -0.3983 -0.0259  0.2634
   47SOL    HW1  457   3.617   1.709   0.301 -2.1034  0.5839 -0.2610
   47SOL    HW2  458   3.747   1.786   0.288 -0.4325 -1.8938  0.8722
   48SOL     OW  459   1.086   3.200   1.405  0.4514 -0.0029 -0.1523
   48SOL    HW1  460   1.140   3.122   1.418 -0.0117  0.0326  2.6295
   48SOL    HW2  461   1.023   3.198   1.478 -0.1317  2.5164 -0.4870
   49SOL     OW  462   3.495   0.834   2.788 -0.6212  0.1206  0.4581
   49SOL    HW1  463   3.516   0.776   2.714 -3.1252  1.6743 -1.6283
   49SOL    HW2  464   3.427   0.787   2.836  0.4177 -0.5144  1.3626
   50SOL     OW  465   4.973   2.204   2.465 -0.0188 -0.4175  0.4446
   50SOL    HW1  466   4.926   2.149   2.403  1.6040 -2.3797  0.8512
   50SOL    HW2  467   4.946   2.293   2.443 -0.8282 -1.1747 -1.9287
   51SOL     OW  468   3.455   3.666   2.887 -0.3894  0.1755  0.1771
   51SOL    HW1  469   3.420   3.578   2.885  0.1741 -0.0705 -2.0190
   51SOL    HW2  470   3.400   3.715   2.825 -0.0802  1.0990  0.6199
   52SOL     OW  471   4.091   3.559   0.113 -0.0790 -0.4405 -0.4746
   52SOL    HW1  472   4.017   3.563   0.052 -0.2771 -0.2773 -0.2281
   52SOL    HW2  473   4.058   3.508   0.187  0.8526 -2.5500 -1.4302
   53SOL     OW  474   0.760   3.186   2.680 -0.3880 -0.4640 -0.0629
   53SOL    HW1  475   0.690   3.233   2.636 -0.0018  0.8466  0.6858
   53SOL    HW2  476   0.836   3.198   2.624 -0.5657 -1.2506 -0.4903
   54SOL     OW  477   5.298   4.816   4.791  1.1701  0.1167 -0.6120
   54SOL    HW1  478   5.231   4.868   4.834  1.0721  1.5440 -2.3854
   54SOL    HW2  479   5.271   4.726   4.804 -0.0246  0.5965  0.3829
   55SOL     OW  480   1.542   3.937   0.720 -0.2284 -0.4285  0.2771
   55SOL    HW1  481   1.585   3.941   0.805 -0.1707  1.1962  0.2003
   55SOL    HW2  482   1.453   3.967   0.737  0.2798  1.6617 -0.5081
   56SOL     OW  483   2.999   5.237   2.770 -0.2334  0.2154  0.5143
   56SOL    HW1  484   2.909   5.220   2.800  0.2450 -1.2977  1.1753
   56SOL    HW2  485   3.035   5.150   2.752  0.0261  0.9354 -3.0955
   57SOL     OW  486   4.356   5.266   4.211  0.3241  0.7141 -0.1845
   57SOL    HW1  487   4.324   5.355   4.228 -0.3105  0.7040 -1.2528
   57SOL    HW2  488   4.280   5.210   4.227  1.3949  0.0060  3.2267
   58SOL     OW  489   1.106   3.903   1.986 -0.8743 -0.1687  0.3066
   58SOL    HW1  490   1.149   3.868   2.064  1.3011  0.0518 -0.7250
   58SOL    HW2  491   1.092   3.995   2.005  0.1175 -0.0039  0.2475
   59SOL     OW  492   0.660   2.532   4.342 -0.2931 -0.1184  0.0348
   59SOL    HW1  493   0.717   2.489   4.405 -0.5885  0.5785  0.8037
   59SOL    HW2  494   0.681   2.625   4.350 -1.3718  0.1297  0.1907
   60SOL     OW  495   4.147   4.318   4.170  0.5871 -0.2127  0.0025
   60SOL    HW1  496   4.133   4.351   4.081  0.5189 -0.9141 -0.2559
   60SOL    HW2  497   4.111   4.229   4.168 -1.3090  0.4552  1.2896
   61SOL     OW  498   4.532   2.263   0.838  0.2305 -0.1942 -0.7752
   61SOL    HW1  499   4.531   2.172   0.809  0.3667 -0.5660  0.3507
   61SOL    HW2  500   4.515   2.259   0.932  0.5899  0.9141 -0.6429
   62SOL     OW  501   3.221   5.074   2.072 -0.3902  0.4638 -0.1918
   62SOL    HW1  502   3.186   5.002   2.124 -0.4924  1.2173  0.8085
   62SOL    HW2  503   3.288   5.114   2.128 -0.2587  1.0775 -0.7756
   63SOL     OW  504   0.051   2.278   4.569  0.1297 -0.0303  0.3855
   63SOL    HW1  505   0.011   2.197   4.537  2.1915  0.0807 -2.9997
   63SOL    HW2  506   0.105   2.251   4.643  0.6275 -1.7866 -0.5619
   64SOL     OW  507   0.296   3.589   0.503  0.2439  0.1226 -0.1883
   64SOL    HW1  508   0.242   3.587   0.582 -0.6149  2.4075 -0.6204
   64SOL    HW2  509   0.254   3.528   0.443 -0.1392 -0.3064  0.5063
   65SOL     OW  510   1.084   0.037   3.665 -0.8657  0.1433 -0.4607
   65SOL    HW1  511   1.134   0.033   3.583  0.2272 -2.4382  0.2111
   65SOL    HW2  512   0.999  -0.002   3.643 -0.2059 -1.5318 -0.2097
   66SOL     OW  513   2.961   4.084   0.146 -0.7033  0.1147  0.7434
   66SOL    HW1  514   2.976   4.178   0.159 -1.8481  0.3960  0.2308
   66SOL    HW2  515   3.026   4.041   0.202  1.5409  1.1672 -0.9207
   67SOL     OW  516   4.062   4.857   5.246 -0.1726 -0.0000 -0.2865
   67SOL    HW1  517   4.020   4.908   5.316 -0.4988  0.6677 -0.9499
   67SOL    HW2  518   4.000   4.786   5.228  0.1851 -0.5158  0.5000
   68SOL     OW  519   1.479   3.011   0.798 -0.3609 -0.1895 -0.3389
   68SOL    HW1  520   1.559   3.034   0.751  0.6885 -0.9479  0.9836
   68SOL    HW2  521   1.449   3.094   0.837  0.5378 -0.1213  0.2348
   69SOL     OW  522   4.374   4.346   5.363 -0.3721 -0.0445 -0.5141
   69SOL    HW1  523   4.416   4.396   5.433  1.3359 -0.6809 -1.0455
   69SOL    HW2  524   4.339   4.413   5.304 -1.8248  0.4995  0.9003
   70SOL     OW  525   4.677   2.727   2.293  0.3894 -0.3016  0.6164
   70SOL    HW1  526   4.609   2.789   2.269 -0.2424 -1.6331 -1.2802
   70SOL    HW2  527   4.668   2.716   2.388 -3.7946 -2.3543  0.1660
   71SOL     OW  528   2.814   5.405   1.053 -0.1372  0.2272  1.5773
   71SOL    HW1  529   2.856   5.341   1.110  1.5522  0.0491  0.2216
   71SOL    HW2  530   2.885   5.463   1.024 -0.9155  0.3577 -0.2491
   72SOL     OW  531   5.510   0.299   1.447  0.0501  0.6554 -0.3930
   72SOL    HW1  532   5.467   0.294   1.362 -1.5180 -1.7049  0.4397
   72SOL    HW2  533   5.594   0.254   1.434 -0.1861  0.2947 -0.6962
   73SOL     OW  534   0.523   0.964   0.338  0.0300  0.0402  0.3328
   73SOL    HW1  535   0.455   0.941   0.402  0.6512  0.8403  1.3131
   73SOL    HW2  536   0.480   1.024   0.278 -0.2435  0.2378  0.7212
   74SOL     OW  537   5.068   5.363   2.964  0.5574  0.7054 -0.0957
   74SOL    HW1  538   5.086   5.283   3.012 -0.9488 -0.0586 -0.7466
   74SOL    HW2  539   5.023   5.420   3.027  0.2931  0.4521 -0.0540
   75SOL     OW  540   5.044   0.091   5.185 -0.5312 -0.3253 -0.0160
   75SOL    HW1  541   5.048   0.131   5.097  0.5945  0.9278  0.5603
   75SOL    HW2  542   4.969   0.033   5.181  0.4882 -1.6624 -2.3774
   76SOL     OW  543   1.296   2.189   2.023  0.0095 -0.2693 -0.4182
   76SOL    HW1  544   1.223   2.172   1.963 -1.0860 -0.0813  0.8124
   76SOL    HW2  545   1.374   2.164   1.974 -0.7938  0.3747 -2.1030
   77SOL     OW  546   4.396   1.080   1.750  0.1378 -0.2876 -0.4576
   77SOL    HW1  547   4.439   0.995   1.738 -1.5827 -1.0407 -1.6935
   77SOL    HW2  548   4.382   1.112   1.661  0.2867  1.0683 -0.0096
   78SOL     OW  549   4.565   3.362   0.944 -0.1758 -0.5125 -0.0807
   78SOL    HW1  550   4.535   3.353   0.854 -3.1262  1.4878  0.5565
   78SOL    HW2  551   4.491   3.333   0.998  0.8170  0.0568  1.6855
   79SOL     OW  552   5.550   2.939   3.747 -0.4471  0.0856 -0.3265
   79SOL    HW1  553   5.540   2.950   3.653  0.6253 -0.7793 -0.5698
   79SOL    HW2  554   5.499   2.860   3.767 -0.8915  0.4181 -0.1258
   80SOL     OW  555   0.534   3.798   0.083  0.3126 -0.8635 -0.0895
   80SOL    HW1  556   0.440   3.790   0.099  0.4266 -1.5145  0.2665
   80SOL    HW2  557   0.562   3.867   0.143  0.1887 -1.1547  0.3040
   81SOL     OW  558   4.199   1.815   5.269  0.1622  0.0784 -0.1402
   81SOL    HW1  559   4.187   1.731   5.224  0.8764 -1.1621  1.8445
   81SOL    HW2  560   4.114   1.858   5.262 -0.6570 -1.4374 -0.0332
   82SOL     OW  561   4.589   4.302   4.305  0.4769 -0.4282  0.0603
   82SOL    HW1  562   4.670   4.262   4.336  0.1164  0.3086  2.1153
   82SOL    HW2  563   4.549   4.236   4.249  3.2342 -0.2015 -2.4159
   83SOL     OW  564   5.546   2.524   2.373  0.1836 -0.1565  0.5699
   83SOL    HW1  565   5.531   2.573   2.454  1.2359  0.6043  0.3257
   83SOL    HW2  566   5.601   2.451   2.399  1.0493  0.4396  0.4542
   84SOL     OW  567   3.245   4.822   0.710  0.2715  0.1620 -0.6648
   84SOL    HW1  568   3.159   4.794   0.678 -1.2015  1.5332  1.7661
   84SOL    HW2  569   3.232   4.913   0.736  2.4468  0.3598 -0.0993
   85SOL     OW  570   0.649   1.582   3.146  0.8827 -0.2180 -0.1863
   85SOL    HW1  571   0.736   1.617   3.127  1.0791 -2.0811 -3.3142
   85SOL    HW2  572   0.589   1.634   3.093  0.4900 -0.9246 -0.4529
   86SOL     OW  573   2.449   3.838   3.495  0.1009 -0.1454 -0.0859
   86SOL    HW1  574   2.358   3.819   3.520 -0.9724  3.3458 -0.7663
   86SOL    HW2  575   2.495   3.845   3.578 -0.6489 -0.2869  0.3551
   87SOL     OW  576   3.970   4.095   1.996 -0.1084 -0.2334 -0.5938
   87SOL    HW1  577   4.002   4.159   2.060 -0.0826  0.3044 -1.1404
   87SOL    HW2  578   3.875   4.108   1.994 -0.0872 -0.1148 -0.8128
   88SOL     OW  579   3.348   4.308   1.595  0.1686  0.1800 -0.1110
   88SOL    HW1  580   3.350   4.287   1.502 -0.5726  0.2670 -0.1516
   88SOL    HW2  581   3.281   4.376   1.603 -0.2172 -0.2758  0.5726
   89SOL     OW  582   3.658   0.877   4.517  0.5455 -0.0143  0.4328
   89SOL    HW1  583   3.675   0.960   4.472  0.3763 -0.1358  0.1413
   89SOL    HW2  584   3.624   0.819   4.449  0.2376 -0.1869  0.7317
   90SOL     OW  585   0.404   5.532   1.249  0.0178  0.0946  0.0401
   90SOL    HW1  586   0.456   5.574   1.181 -0.3873  2.2339  0.9554
   90SOL    HW2  587   0.464   5.522   1.323  0.2448 -1.4894 -0.3227
   91SOL     OW  588   0.949   0.589   0.421 -0.7477 -0.0816 -0.3494
   91SOL    HW1  589   0.998   0.509   0.403 -1.1211 -0.4217  0.1376
   91SOL    HW2  590   0.939   0.631   0.335  0.6083  0.1215 -0.4321
   92SOL     OW  591   3.038   1.349   2.774 -0.2987  0.5351  0.5342
   92SOL    HW1  592   3.026   1.273   2.717 -0.4485  0.3723  0.7811
   92SOL    HW2  593   3.048   1.312   2.862  0.9973  0.7131  0.4884
   93SOL     OW  594   0.056   1.760   2.356 -0.2108  0.1434  0.7245
   93SOL    HW1  595   0.133   1.776   2.302 -0.8594 -0.9566 -0.5667
   93SOL    HW2  596   0.054   1.665   2.369 -1.5105  0.1156  0.4862
   94SOL     OW  597   4.974   0.267   1.168  0.1503  0.7560 -0.5935
   94SOL    HW1  598   4.952   0.177   1.143  0.8043  0.8867 -1.7228
   94SOL    HW2  599   5.049   0.258   1.226 -0.3496  0.5292  0.0248
   95SOL     OW  600   3.021   1.019   1.918 -0.0146  0.3946  0.2093
   95SOL    HW1  601   3.064   0.951   1.970  0.9644  1.4275  0.7889
   95SOL    HW2  602   3.004   1.090   1.980  0.5581  1.3799 -0.7386
   96SOL     OW  603   1.046   0.856   2.605  0.1406  0.0270  0.2232
   96SOL    HW1  604   0.973   0.797   2.587 -0.2575  0.6043 -0.0915
   96SOL    HW2  605   1.076   0.884   2.519 -0.1120  0.7975  0.3745
   97SOL     OW  606   4.295   4.967   4.483 -0.2753 -0.0520 -0.4297
   97SOL    HW1  607   4.275   4.992   4.392  1.2550 -0.7028 -0.9800
   97SOL    HW2  608   4.305   4.872   4.480 -1.2680 -0.2184  0.6670
   98SOL     OW  609   0.032   5.399   0.323 -0.3058  0.5662  0.1303
   98SOL    HW1  610   0.091   5.339   0.369 -2.1928 -0.6745  1.0525
   98SOL    HW2  611   0.067   5.486   0.341  2.8922 -0.1721 -1.7476
   99SOL     OW  612   2.281   2.605   4.243  0.3963 -0.2640  0.3665
   99SOL    HW1  613   2.349   2.650   4.292  1.2343  0.1681 -1.1285
   99SOL    HW2  614   2.201   2.655   4.259  0.6148 -0.2431  1.4055
  100SOL     OW  615   0.024   3.290   3.972  0.2303 -0.3721  0.6587
  100SOL    HW1  616  -0.021   3.257   3.894 -1.1492  2.2043  0.2612
  100SOL    HW2  617  -0.043   3.340   4.019  1.8594  0.8176  1.8052
  101SOL     OW  618   3.889   5.168   3.114  0.5674  0.0296 -0.1937
  101SOL    HW1  619   3.909   5.257   3.144  3.2160 -0.2815 -0.7657
  101SOL    HW2  620   3.909   5.169   3.020  0.4887 -1.1396 -0.2409
  102SOL     OW  621   3.738   1.478   3.388 -0.5674  0.0769 -0.4464
  102SOL    HW1  622   3.713   1.391   3.357 -2.7351  0.1713  0.8039
  102SOL    HW2  623   3.811   1.504   3.332 -0.6458 -2.0390 -1.6309
  103SOL     OW  624   1.458   0.321   3.576  0.2733  0.8318  0.0230
  103SOL    HW1  625   1.466   0.288   3.487 -1.7107 -0.1789  0.1726
  103SOL    HW2  626   1.435   0.414   3.565 -0.0292  0.6961 -0.5196
  104SOL     OW  627   3.208   1.582   1.394 -0.3619  0.2512  0.1121
  104SOL    HW1  628   3.149   1.593   1.320 -1.1111  0.1655  0.6792
  104SOL    HW2  629   3.207   1.488   1.411  0.2840  0.1959 -0.1472
  105SOL     OW  630   3.791   0.605   1.786  0.2611 -0.5522 -0.3193
  105SOL    HW1  631   3.706   0.595   1.743 -0.7080  0.6934  1.2166
  105SOL    HW2  632   3.838   0.524   1.764 -1.2546 -1.2161 -1.3101
  106SOL     OW  633   5.119   4.140   3.075  0.6082 -0.0484 -0.3318
  106SOL    HW1  634   5.082   4.103   2.995 -2.1632 -0.3314  1.0000
  106SOL    HW2  635   5.056   4.207   3.102  1.8019  0.4724  1.3106
  107SOL     OW  636   3.382   1.719   2.375 -0.4638 -0.0032  0.3233
  107SOL    HW1  637   3.477   1.724   2.386 -0.7891  1.7846  3.5693
  107SOL    HW2  638   3.357   1.806   2.344 -0.9959 -0.8742 -1.8522
  108SOL     OW  639   0.064   3.180   4.771  0.1467  0.2362 -0.0342
  108SOL    HW1  640   0.079   3.206   4.862  0.2927 -3.6109  1.2431
  108SOL    HW2  641   0.087   3.257   4.720 -1.1774  3.0517  3.1783
  109SOL     OW  642   2.597   4.820   4.012 -0.3430 -1.0758  0.2799
  109SOL    HW1  643   2.558   4.739   4.045  1.2168 -2.0344 -0.1271
  109SOL    HW2  644   2.569   4.825   3.920 -1.3155 -0.5674  0.5913
  110SOL     OW  645   2.329   2.643   4.677  0.1499  0.2306 -0.1608
  110SOL    HW1  646   2.374   2.603   4.602 -0.5980  0.5699 -0.8051
  110SOL    HW2  647   2.239   2.611   4.671 -0.4737  1.9609 -0.6915
  111SOL     OW  648   2.379   2.457   2.095 -0.5425  0.3081 -0.3351
  111SOL    HW1  649   2.305   2.509   2.065 -0.6657 -0.5669 -1.6240
  111SOL    HW2  650   2.455   2.500   2.056 -0.4983  0.4132 -0.1335
  112SOL     OW  651   4.957   4.317   5.186 -0.2854 -0.5547  0.5770
  112SOL    HW1  652   4.875   4.343   5.228 -0.2154 -1.9026  1.5964
  112SOL    HW2  653   4.962   4.222   5.200 -0.1220 -1.0394 -2.2637
  113SOL     OW  654   3.721   4.726   0.249 -0.3366 -0.0818 -0.1479
  113SOL    HW1  655   3.772   4.692   0.322  0.2004  0.9332 -0.0316
  113SOL    HW2  656   3.777   4.714   0.173 -0.8245 -0.9776 -0.3764
  114SOL     OW  657   3.660   3.452   2.285  0.5459 -0.3610 -0.1927
  114SOL    HW1  658   3.589   3.513   2.304 -0.8847 -2.2458  0.8416
  114SOL    HW2  659   3.721   3.464   2.358 -0.2496 -0.8554  0.5811
  115SOL     OW  660   4.559   5.164   5.086 -0.0200  0.2130 -0.2995
  115SOL    HW1  661   4.647   5.165   5.123 -0.2937  1.1490  0.3471
  115SOL    HW2  662   4.512   5.233   5.133 -1.2997 -0.7200 -0.1574
  116SOL     OW  663   2.376   0.871   5.083 -0.3161  0.6770 -0.3358
  116SOL    HW1  664   2.293   0.919   5.093 -0.7103 -0.3626  2.2697
  116SOL    HW2  665   2.350   0.781   5.065  0.2851  0.5881 -0.7715
  117SOL     OW  666   4.137   2.042   4.989 -0.5448  0.0361  0.1704
  117SOL    HW1  667   4.073   2.000   5.047 -0.5313  0.7654  0.7301
  117SOL    HW2  668   4.086   2.071   4.914 -1.0816  1.5037  1.0669
  118SOL     OW  669   4.315   5.120   1.447  0.1215 -0.0752 -0.1063
  118SOL    HW1  670   4.328   5.027   1.465  3.5542  0.5090  1.2470
  118SOL    HW2  671   4.258   5.151   1.518 -0.2917 -0.9662 -0.0439
  119SOL     OW  672   5.099   2.290   0.800  0.3395  0.8274  0.0283
  119SOL    HW1  673   5.124   2.299   0.892  1.2034  0.7479 -0.1876
  119SOL    HW2  674   5.027   2.352   0.787 -1.7622 -1.1533  1.4616
  120SOL     OW  675   3.246   2.009   0.515  0.2656 -0.0506  0.0934
  120SOL    HW1  676   3.247   2.073   0.443 -1.1721  0.3775  0.4171
  120SOL    HW2  677   3.215   2.059   0.590  1.2778 -0.6145  0.9029
  121SOL     OW  678   3.942   0.256   4.846 -0.8714 -0.2204 -0.2434
  121SOL    HW1  679   3.899   0.340   4.862  0.4612  0.5770 -0.6699
  121SOL    HW2  680   3.922   0.203   4.924 -0.4900  1.0241  0.7257
  122SOL     OW  681   4.444   3.253   2.702  0.1769  0.4686 -0.8123
  122SOL    HW1  682   4.389   3.216   2.633 -1.7648  2.4891 -0.4570
  122SOL    HW2  683   4.492   3.178   2.737 -3.9291 -1.9584  0.2629
  123SOL     OW  684   2.035   3.601   0.921  0.0074  0.1492 -0.2270
  123SOL    HW1  685   2.081   3.625   0.841 -0.3231  1.5247 -0.0234
  123SOL    HW2  686   1.946   3.583   0.893  0.0028  0.1810 -0.2327
  124SOL     OW  687   4.555   0.818   0.739 -0.3216 -0.3683  0.2757
  124SOL    HW1  688   4.583   0.891   0.793 -1.9450 -0.0026  0.6675
  124SOL    HW2  689   4.573   0.845   0.649  1.5603 -0.6171  0.5481
  125SOL     OW  690   3.083   1.842   4.956  0.2920 -0.5492  0.4630
  125SOL    HW1  691   3.039   1.787   4.891 -1.6655 -1.7656  2.6572
  125SOL    HW2  692   3.050   1.931   4.939  0.5844 -0.6741 -0.8076
  126SOL     OW  693   0.576   2.130   2.165 -0.4283 -0.4931 -0.2630
  126SOL    HW1  694   0.633   2.139   2.242  3.3836  2.4383 -2.9719
  126SOL    HW2  695   0.600   2.045   2.128 -0.9070 -1.0982  0.7862
  127SOL     OW  696   4.628   0.043   4.267  0.0469 -0.0975 -0.1314
  127SOL    HW1  697   4.574   0.111   4.227 -0.5024 -0.0682  0.6350
  127SOL    HW2  698   4.705   0.090   4.300 -0.1577  0.1004  0.0686
  128SOL     OW  699   1.946   1.131   0.102  0.2640  0.3016 -0.1904
  128SOL    HW1  700   1.914   1.104   0.188 -0.1256  0.5589 -0.2508
  128SOL    HW2  701   1.867   1.160   0.056  0.7188  1.9610  0.0253
  129SOL     OW  702   2.123   1.989   2.578  0.6270  0.2679  0.3553
  129SOL    HW1  703   2.029   1.982   2.559  0.6081 -0.0320  0.5421
  129SOL    HW2  704   2.130   2.062   2.639  0.6412  0.9870 -0.4953
  130SOL     OW  705   5.189   5.256   5.384 -0.5487 -0.9215  0.1959
  130SOL    HW1  706   5.131   5.331   5.399  1.4693  0.5941  0.8011
  130SOL    HW2  707   5.194   5.214   5.470 -0.3134 -0.7097  0.2878
  131SOL     OW  708   3.661   3.833   0.187  0.1663 -0.0716 -0.0389
  131SOL    HW1  709   3.684   3.750   0.229 -0.3411  0.6113  1.6911
  131SOL    HW2  710   3.657   3.812   0.094  0.9018 -1.7818  0.2714
  132SOL     OW  711   1.763   0.681   0.062  0.1581  0.3629 -0.5077
  132SOL    HW1  712   1.781   0.745   0.130  0.1611 -0.0980 -0.0660
  132SOL    HW2  713   1.672   0.655   0.076  0.0024  0.6383 -0.9952
  133SOL     OW  714   2.557   3.889   5.269 -0.0286 -0.0587  0.1142
  133SOL    HW1  715   2.567   3.797   5.247  0.0849  0.2112 -1.0786
  133SOL    HW2  716   2.587   3.896   5.359  0.7247 -1.0543 -0.0343
  134SOL     OW  717   0.768   2.799   3.225  0.4743  0.4410 -0.2120
  134SOL    HW1  718   0.679   2.763   3.224  0.2997  0.8630 -0.7464
  134SOL    HW2  719   0.817   2.741   3.283  0.3378 -0.9511 -1.4321
  135SOL     OW  720   5.038   3.641   0.209 -0.8025 -0.6366 -0.0558
  135SOL    HW1  721   5.094   3.609   0.280 -0.7626 -0.4097  0.0178
  135SOL    HW2  722   4.951   3.607   0.230 -1.0163  0.3087  0.6915
  136SOL     OW  723   3.901   2.735   0.540  0.1811  0.0577 -0.0999
  136SOL    HW1  724   3.938   2.684   0.469 -0.7237 -0.8465  0.0553
  136SOL    HW2  725   3.861   2.811   0.498  1.1917  0.4461 -0.3709
  137SOL     OW  726   4.708   1.207   5.043 -0.2336  0.3825  0.1849
  137SOL    HW1  727   4.745   1.118   5.042  0.6320  0.7139  1.2722
  137SOL    HW2  728   4.614   1.193   5.032  0.0819 -0.5011 -2.2363
  138SOL     OW  729   4.579   1.335   2.843  0.0514 -0.2169  0.0104
  138SOL    HW1  730   4.602   1.258   2.791 -0.7068  0.4083 -1.2855
  138SOL    HW2  731   4.501   1.309   2.891 -0.7488  0.0214 -1.1277
  139SOL     OW  732   1.265   3.460   1.423  0.1553 -0.4425 -0.2355
  139SOL    HW1  733   1.224   3.390   1.372  0.7154  0.7454 -2.4412
  139SOL    HW2  734   1.357   3.458   1.398  0.7654 -0.6646  1.8113
  140SOL     OW  735   2.060   3.249   1.324  0.1470  0.4788 -0.3514
  140SOL    HW1  736   2.144   3.221   1.287 -0.2803 -0.5930 -0.5442
  140SOL    HW2  737   2.074   3.341   1.348  0.5593  1.1365 -2.8265
  141SOL     OW  738   1.041   2.375   0.526 -0.4624  0.0771 -0.2413
  141SOL    HW1  739   1.103   2.384   0.453  1.2292 -1.4901  0.9165
  141SOL    HW2  740   0.988   2.298   0.502  0.4295 -0.7489  0.3710
  142SOL     OW  741   0.671   0.414   2.383 -1.0864  0.4266 -0.5439
  142SOL    HW1  742   0.698   0.447   2.298  0.2448 -0.6784 -0.5790
  142SOL    HW2  743   0.607   0.478   2.415 -1.3127  1.0459 -2.1888
  143SOL     OW  744   5.448   4.057   5.358 -0.1688  0.1385 -0.4942
  143SOL    HW1  745   5.419   4.148   5.370  0.9380  0.4566 -0.1569
  143SOL    HW2  746   5.536   4.064   5.322  1.0075 -0.7462  1.9777
  144SOL     OW  747   4.065   0.869   5.117 -0.1895 -0.0842 -0.0965
  144SOL    HW1  748   4.034   0.842   5.203 -1.3203 -2.2432 -1.0968
  144SOL    HW2  749   3.997   0.838   5.056  0.7710  0.9995 -1.8048
  145SOL     OW  750   1.735   2.915   2.563 -0.0525 -0.0951 -0.3541
  145SOL    HW1  751   1.829   2.902   2.579 -0.0811  0.5074  0.3300
  145SOL    HW2  752   1.698   2.827   2.569  0.7523 -0.6727 -2.7566
  146SOL     OW  753   4.141   2.472   0.401  0.1253 -0.3786  0.3404
  146SOL    HW1  754   4.202   2.503   0.335  0.8734  0.6585  1.4693
  146SOL    HW2  755   4.055   2.493   0.367  0.5048  0.2148 -0.2690
  147SOL     OW  756   5.255   4.918   1.368  0.6990 -0.2976  0.7793
  147SOL    HW1  757   5.281   5.006   1.396  1.3430 -0.4320  0.6188
  147SOL    HW2  758   5.198   4.932   1.292  0.6138 -0.0154  0.8933
  148SOL     OW  759   2.050   4.596   3.294  0.4206 -0.4843  0.4685
  148SOL    HW1  760   2.075   4.669   3.350 -0.9888  0.2227  0.1990
  148SOL    HW2  761   2.089   4.616   3.209  1.0282 -0.6587  0.6965
  149SOL     OW  762   3.179   3.562   3.118 -0.2098  0.1041 -0.9650
  149SOL    HW1  763   3.146   3.650   3.104  0.6504  0.4314 -1.0274
  149SOL    HW2  764   3.201   3.559   3.211 -0.1815 -0.0190 -0.9756
  150SOL     OW  765   4.489   1.262   1.090 -0.0439 -0.9068 -0.0886
  150SOL    HW1  766   4.572   1.268   1.137  0.2631 -1.9011 -0.4564
  150SOL    HW2  767   4.436   1.333   1.125  1.9833  1.7193 -1.9548
  151SOL     OW  768   1.504   1.377   2.977  0.4108  0.1538 -0.4576
  151SOL    HW1  769   1.591   1.411   3.000  0.3836 -0.4529  0.6392
  151SOL    HW2  770   1.472   1.338   3.059 -1.2313  1.0722 -0.6106
  152SOL     OW  771   0.252   3.715   0.103  0.4357 -0.4419  0.6539
  152SOL    HW1  772   0.309   3.655   0.055  1.2504  0.6661  0.1979
  152SOL    HW2  773   0.183   3.738   0.042 -1.5319 -3.0661  1.7200
  153SOL     OW  774   1.874   3.284   3.512  0.1568  0.0101  0.0381
  153SOL    HW1  775   1.949   3.258   3.565  0.3495  0.7007  0.1120
  153SOL    HW2  776   1.837   3.359   3.557 -0.5215 -0.2567 -0.0578
  154SOL     OW  777   0.894   4.356   0.473 -0.0764 -0.1845 -0.5073
  154SOL    HW1  778   0.966   4.297   0.452  0.3530  0.4501 -0.8408
  154SOL    HW2  779   0.870   4.333   0.563  0.0885 -0.8524 -0.6288
  155SOL     OW  780   3.722   0.980   1.825 -0.1806  0.3275 -0.4523
  155SOL    HW1  781   3.649   0.943   1.874  0.6030 -0.0324  0.4794
  155SOL    HW2  782   3.704   1.074   1.822  0.5759  0.5988  2.0025
  156SOL     OW  783   2.122   0.568   0.851  0.4073  0.7529 -0.5293
  156SOL    HW1  784   2.171   0.509   0.794  0.7840  0.9956 -0.4625
  156SOL    HW2  785   2.059   0.512   0.896  0.5802  0.4474 -0.6661
  157SOL     OW  786   5.093   2.836   3.930  0.6454  0.0962  0.0619
  157SOL    HW1  787   5.010   2.883   3.939  0.2105 -0.6007 -0.2061
  157SOL    HW2  788   5.077   2.773   3.860  0.6730 -1.6028  1.5145
  158SOL     OW  789   3.516   1.107   3.744 -0.3294 -0.0461  0.1845
  158SOL    HW1  790   3.483   1.062   3.821  1.1260  0.3373  1.0635
  158SOL    HW2  791   3.527   1.038   3.679 -0.7905 -0.5001  0.5778
  159SOL     OW  792   4.576   5.083   0.845  0.4616  0.0650 -0.1625
  159SOL    HW1  793   4.533   5.002   0.871 -0.3680  0.6560  0.3742
  159SOL    HW2  794   4.624   5.112   0.923  0.3389  0.3494 -0.1902
  160SOL     OW  795   3.772   2.780   1.748  0.1659 -0.0536 -0.6857
  160SOL    HW1  796   3.826   2.855   1.773 -0.2017  0.4929 -1.4831
  160SOL    HW2  797   3.682   2.807   1.768  0.0846 -0.5445 -0.3649
  161SOL     OW  798   4.645   3.878   4.953  0.4764 -0.4503 -0.0253
  161SOL    HW1  799   4.635   3.865   4.859  0.3356  1.5599 -0.3401
  161SOL    HW2  800   4.730   3.840   4.974  0.8930 -0.1518 -1.1370
  162SOL     OW  801   0.968   3.181   4.135 -0.2254 -0.4141  0.0272
  162SOL    HW1  802   0.912   3.105   4.119 -1.5026  0.1582  1.4614
  162SOL    HW2  803   0.989   3.214   4.048 -1.8017 -0.9012 -0.5776
  163SOL     OW  804   3.424   4.753   2.049 -0.2821 -0.0365 -0.2868
  163SOL    HW1  805   3.423   4.660   2.029  0.5583 -0.4874  1.5874
  163SOL    HW2  806   3.433   4.796   1.964 -0.8072 -1.6448 -1.1878
  164SOL     OW  807   1.192   1.038   4.201  0.0940  0.4938 -0.1058
  164SOL    HW1  808   1.107   1.082   4.202 -0.3555 -0.3068  1.8039
  164SOL    HW2  809   1.170   0.945   4.205  0.9854  0.3051  2.6323
  165SOL     OW  810   4.523   0.794   0.237 -0.1379  0.0960 -0.4418
  165SOL    HW1  811   4.511   0.886   0.260 -1.8823 -0.3970  0.8083
  165SOL    HW2  812   4.453   0.775   0.174 -1.0018 -0.8059  0.7296
  166SOL     OW  813   5.004   2.218   1.526  0.2054  0.2399 -0.1062
  166SOL    HW1  814   4.955   2.294   1.496 -0.7028  1.2402  3.4379
  166SOL    HW2  815   4.944   2.144   1.514 -0.9949  0.9588  1.2522
  167SOL     OW  816   3.668   0.635   3.034 -0.4060  0.5121 -0.0286
  167SOL    HW1  817   3.635   0.705   2.977  1.2747  2.6938  1.5460
  167SOL    HW2  818   3.622   0.649   3.117 -0.4927 -0.6772  0.1376
  168SOL     OW  819   0.435   5.329   2.607 -0.1718  0.0737  0.0568
  168SOL    HW1  820   0.512   5.299   2.655  0.4256 -0.3809 -1.1420
  168SOL    HW2  821   0.470   5.374   2.530 -1.0665 -1.4372 -1.3099
  169SOL     OW  822   4.243   3.824   2.239 -0.1625  0.1894 -0.0786
  169SOL    HW1  823   4.333   3.796   2.253 -0.0098  1.0853  0.8409
  169SOL    HW2  824   4.239   3.849   2.147 -0.0198 -1.7413 -0.6630
  170SOL     OW  825   2.001   2.685   2.925  0.3879 -0.1643 -0.5522
  170SOL    HW1  826   2.021   2.721   3.011  1.1062 -2.8049  0.4738
  170SOL    HW2  827   1.979   2.762   2.872  1.8370  1.7551  1.4235
  171SOL     OW  828   3.474   4.169   2.400 -0.4011  0.4513  0.4181
  171SOL    HW1  829   3.506   4.097   2.454  1.1987  0.5785 -0.2973
  171SOL    HW2  830   3.463   4.242   2.462  0.2740  0.2723  0.7555
  172SOL     OW  831   4.429   4.141   0.927  0.0019  0.2783  0.7272
  172SOL    HW1  832   4.397   4.228   0.903  0.0782  0.7813  2.3280
  172SOL    HW2  833   4.521   4.142   0.902 -0.4031 -0.0132 -0.9007
  173SOL     OW  834   1.084   0.564   0.817  0.1397  0.6912  0.0272
  173SOL    HW1  835   1.039   0.481   0.802 -1.1293  1.2820  0.5021
  173SOL    HW2  836   1.171   0.551   0.777 -0.1042 -0.7814 -0.0818
  174SOL     OW  837   5.340   3.158   0.213  0.0566  0.6692  0.3082
  174SOL    HW1  838   5.412   3.133   0.270 -0.4394  1.5013  1.3242
  174SOL    HW2  839   5.328   3.252   0.228 -1.1487  0.5816  0.0527
  175SOL     OW  840   2.007   1.493   3.805 -0.4036  0.1347  0.5881
  175SOL    HW1  841   1.961   1.453   3.731  2.1797  1.0481 -1.6640
  175SOL    HW2  842   2.024   1.420   3.865 -1.0582 -0.9705 -0.5305
  176SOL     OW  843   3.883   5.118   2.256  0.5941  0.0282 -1.0730
  176SOL    HW1  844   3.832   5.037   2.254  0.0788  0.3262 -0.4680
  176SOL    HW2  845   3.903   5.136   2.164 -1.4840  0.5619 -1.4754
  177SOL     OW  846   5.280   4.084   2.348 -0.0970  0.3444  0.5073
  177SOL    HW1  847   5.193   4.098   2.387  0.2826 -0.0009  1.5064
  177SOL    HW2  848   5.262   4.062   2.257 -1.1022 -0.4394  0.8799
  178SOL     OW  849   1.033   4.880   0.278  0.3750  0.1326  0.5884
  178SOL    HW1  850   0.973   4.925   0.219  0.6431 -1.2118 -0.7701
  178SOL    HW2  851   0.980   4.812   0.319  1.0024 -1.4216 -1.0289
  179SOL     OW  852   3.568   3.214   4.650 -0.0120 -0.9370 -0.1145
  179SOL    HW1  853   3.638   3.273   4.680 -1.3922  2.4439 -2.7762
  179SOL    HW2  854   3.613   3.132   4.631  2.5121 -0.1003  1.6830
  180SOL     OW  855   0.651   3.453   3.440  0.1195  0.0002  0.6357
  180SOL    HW1  856   0.669   3.535   3.485  1.9224  1.1609 -2.0063
  180SOL    HW2  857   0.708   3.453   3.364 -0.9203 -3.0290 -0.3113
  181SOL     OW  858   5.199   4.933   3.497  0.3056 -0.1547 -0.0251
  181SOL    HW1  859   5.285   4.922   3.457  0.1072 -0.9961 -0.2316
  181SOL    HW2  860   5.191   5.028   3.512  0.5969  0.1302 -1.5182
  182SOL     OW  861   4.003   4.564   3.544  0.1708 -0.0879 -0.4105
  182SOL    HW1  862   4.065   4.517   3.600 -0.4393 -1.3310 -0.7661
  182SOL    HW2  863   4.035   4.655   3.546  0.6400 -0.2450  1.2857
  183SOL     OW  864   5.176   1.899   5.461  0.2658 -0.2540 -0.0935
  183SOL    HW1  865   5.152   1.981   5.419  3.6473  2.1784  2.1581
  183SOL    HW2  866   5.262   1.878   5.426  0.1514 -1.9925  0.5520
  184SOL     OW  867   3.904   0.065   0.305  0.3501  0.0137 -0.1787
  184SOL    HW1  868   3.813   0.077   0.332  0.2933 -0.6167 -0.0883
  184SOL    HW2  869   3.898   0.024   0.219  0.5310  1.6652 -1.0319
  185SOL     OW  870   5.399   4.489   1.045 -0.7614 -0.3468 -0.4247
  185SOL    HW1  871   5.403   4.527   0.958 -2.2586 -1.2511 -0.9211
  185SOL    HW2  872   5.468   4.422   1.045  0.8160  1.2132 -0.0764
  186SOL     OW  873   4.070   0.737   0.812 -0.1487 -0.1082 -0.2519
  186SOL    HW1  874   4.058   0.682   0.889 -1.3159 -1.3403 -1.2516
  186SOL    HW2  875   4.140   0.694   0.762  1.6084  1.4585  0.7223
  187SOL     OW  876   1.220   1.442   5.280  0.2276 -0.3458  0.2247
  187SOL    HW1  877   1.179   1.528   5.295 -1.1097 -1.0637  0.8740
  187SOL    HW2  878   1.232   1.406   5.368  0.6594 -0.8823 -0.0530
  188SOL     OW  879   2.080   2.216   0.784 -0.1240 -0.3820  0.3706
  188SOL    HW1  880   2.020   2.269   0.837 -0.9728  0.8401 -1.7092
  188SOL    HW2  881   2.080   2.131   0.827 -4.2254 -0.8041 -0.0371
  189SOL     OW  882   2.357   4.379   2.719 -0.4009  0.2254 -0.0692
  189SOL    HW1  883   2.336   4.456   2.666  1.9612  0.1561 -1.2544
  189SOL    HW2  884   2.316   4.306   2.672 -0.0464  0.4103 -0.6832
  190SOL     OW  885   1.655   5.347   5.270 -0.4606  0.3373 -0.3227
  190SOL    HW1  886   1.682   5.437   5.250  0.5106  0.2107  0.3649
  190SOL    HW2  887   1.719   5.292   5.225 -1.5519 -0.0608 -1.4758
  191SOL     OW  888   0.085   1.066   2.827 -0.0973  0.0360  0.0821
  191SOL    HW1  889   0.067   1.032   2.739 -1.8790 -0.1611  0.4956
  191SOL    HW2  890   0.032   1.146   2.833  2.1205  1.5981  0.0236
  192SOL     OW  891   3.628   0.562   4.697  0.3124 -0.7531  0.9538
  192SOL    HW1  892   3.604   0.595   4.783 -0.4457  0.3633  0.3378
  192SOL    HW2  893   3.718   0.593   4.684  0.1999 -0.3797  1.0728
  193SOL     OW  894   3.661   4.816   1.800  0.4291  0.3515 -0.5734
  193SOL    HW1  895   3.741   4.856   1.765  1.8996 -0.6098  1.4772
  193SOL    HW2  896   3.692   4.744   1.855 -1.8935 -0.3621 -0.0802
  194SOL     OW  897   4.665   3.155   0.214 -0.1569 -0.5442 -0.4781
  194SOL    HW1  898   4.590   3.164   0.272  0.4563 -1.0306  0.4063
  194SOL    HW2  899   4.629   3.120   0.132 -1.1963  1.2447 -0.8186
  195SOL     OW  900   1.227   5.509   0.847 -0.0904  0.1642 -0.1198
  195SOL    HW1  901   1.285   5.555   0.787  1.5349  1.5195  2.3334
  195SOL    HW2  902   1.139   5.537   0.822  0.4571  0.2288 -2.1575
  196SOL     OW  903   1.805   4.250   3.438 -0.1825  0.4254  0.0915
  196SOL    HW1  904   1.792   4.303   3.359  1.7578  1.7530  0.5850
  196SOL    HW2  905   1.837   4.166   3.405 -0.2363  0.6591 -0.5812
  197SOL     OW  906   1.954   1.456   3.515 -0.1069  0.3721  0.0121
  197SOL    HW1  907   2.025   1.391   3.512 -1.7962 -1.5514 -1.6326
  197SOL    HW2  908   1.966   1.508   3.435 -2.8101 -2.7810 -2.7767
  198SOL     OW  909   1.029   0.952   1.126  0.0518  0.1837 -0.2123
  198SOL    HW1  910   1.092   0.898   1.078 -1.1161 -1.9445  0.5065
  198SOL    HW2  911   1.049   0.936   1.218 -1.5691 -0.6654  0.0391
  199SOL     OW  912   3.864   2.367   0.589  0.4267  0.6477  0.3291
  199SOL    HW1  913   3.955   2.379   0.615  0.7303  1.0473 -0.8661
  199SOL    HW2  914   3.816   2.438   0.631  0.9050  1.2678 -0.1545
  200SOL     OW  915   2.070   5.370   4.553 -0.5780  0.1313 -0.1564
  200SOL    HW1  916   2.052   5.309   4.482  2.4633 -1.0757 -0.0647
  200SOL    HW2  917   2.105   5.448   4.510 -0.4540  0.1095 -0.0988
  201SOL     OW  918   4.216   2.857   0.913  0.6183 -0.1745 -0.2912
  201SOL    HW1  919   4.223   2.946   0.948  0.3860  0.0904 -0.9158
  201SOL    HW2  920   4.230   2.866   0.819  0.8060 -0.8298 -0.3346
  202SOL     OW  921   4.433   4.294   3.114  0.1031  0.1202  0.0740
  202SOL    HW1  922   4.377   4.227   3.076 -0.9340  0.8981  0.1823
  202SOL    HW2  923   4.473   4.338   3.039 -0.5799  0.5123 -0.0690
  203SOL     OW  924   2.414   1.238   0.746  0.2007  0.4020  0.2381
  203SOL    HW1  925   2.491   1.218   0.693  1.4671  1.6811  1.4729
  203SOL    HW2  926   2.421   1.178   0.821 -0.7786 -0.4027 -0.2919
  204SOL     OW  927   5.060   2.077   2.052 -0.5299 -0.5833  0.0304
  204SOL    HW1  928   5.038   1.996   2.098  0.7384 -1.3045 -0.5877
  204SOL    HW2  929   5.114   2.049   1.978 -3.1327  0.4190 -2.4434
  205SOL     OW  930   1.008   3.616   2.556 -0.0808 -0.2797  0.0935
  205SOL    HW1  931   1.044   3.648   2.473 -3.1338  0.2863 -1.1489
  205SOL    HW2  932   0.934   3.673   2.573 -0.1119 -1.0026  2.7746
  206SOL     OW  933   1.251   0.808   1.031 -0.3389 -0.1497 -0.0663
  206SOL    HW1  934   1.261   0.797   0.937  3.9444  0.7997  0.0714
  206SOL    HW2  935   1.246   0.719   1.066 -0.7170 -0.5521 -1.1191
  207SOL     OW  936   2.673   0.765   0.552  0.2023 -0.8803 -0.8770
  207SOL    HW1  937   2.737   0.701   0.584  1.5227 -0.4492 -2.4917
  207SOL    HW2  938   2.641   0.727   0.470  1.2954  0.6275 -2.0623
  208SOL     OW  939   3.372   3.597   2.564 -0.2100 -0.2224 -0.7084
  208SOL    HW1  940   3.278   3.576   2.561 -0.2685  0.0748 -2.8160
  208SOL    HW2  941   3.376   3.683   2.604 -0.9767  0.2727 -1.6390
  209SOL     OW  942   1.066   2.978   2.835  0.2044  0.0853 -0.2051
  209SOL    HW1  943   0.986   2.999   2.883  0.3953  0.1097  0.1020
  209SOL    HW2  944   1.115   2.921   2.894  0.7985  0.7496 -0.0419
  210SOL     OW  945   0.418   1.644   1.956  0.1748 -0.0241 -0.3584
  210SOL    HW1  946   0.509   1.615   1.944  1.1394  2.5956  0.0228
  210SOL    HW2  947   0.368   1.563   1.962  2.2068 -1.5815 -2.4813
  211SOL     OW  948   4.712   4.423   4.590  0.4047 -0.3210  0.0813
  211SOL    HW1  949   4.741   4.460   4.507 -0.9448  0.8329  0.0757
  211SOL    HW2  950   4.792   4.405   4.639  1.2027 -0.7176 -1.3385
  212SOL     OW  951   1.838   0.076   3.363  0.5441  0.7191  0.0865
  212SOL    HW1  952   1.798   0.061   3.278 -0.6058 -0.8948  0.8554
  212SOL    HW2  953   1.821   0.168   3.382  0.6494  1.0501 -1.3196
  213SOL     OW  954   0.987   3.194   4.919 -0.2477 -0.0333  0.4007
  213SOL    HW1  955   0.995   3.281   4.879 -2.4976  0.1409  0.1934
  213SOL    HW2  956   0.926   3.147   4.862  0.7149 -1.6886  0.6606
  214SOL     OW  957   0.227   5.514   2.158 -0.3360 -0.4546  0.1838
  214SOL    HW1  958   0.142   5.551   2.183 -0.5415 -0.2940 -0.7143
  214SOL    HW2  959   0.206   5.433   2.112 -0.0114 -0.3301 -0.1894
  215SOL     OW  960   2.809   2.780   0.130 -0.0074 -0.5683 -0.8136
  215SOL    HW1  961   2.794   2.734   0.047  1.2029  0.2872 -1.5582
  215SOL    HW2  962   2.844   2.714   0.189 -1.0409 -1.2281 -0.9224
  216SOL     OW  963   0.066   0.904   0.253 -0.1724  0.1205 -0.3950
  216SOL    HW1  964   0.054   0.824   0.305 -0.3918  0.1584 -0.3847
  216SOL    HW2  965  -0.017   0.914   0.206 -0.2776  0.5359 -0.1290
  217SOL     OW  966   0.659   4.711   0.500  0.4931  0.2691  0.0212
  217SOL    HW1  967   0.610   4.700   0.581 -0.9770 -1.6337 -1.0528
  217SOL    HW2  968   0.751   4.703   0.526  0.0502 -0.1236  1.5216
  218SOL     OW  969   4.240   5.415   3.135 -0.8691  0.2810 -0.2134
  218SOL    HW1  970   4.253   5.349   3.066 -0.0403  0.2029  0.0044
  218SOL    HW2  971   4.310   5.478   3.121 -0.7139  0.2823  0.5299
  219SOL     OW  972   2.265   5.436   3.772 -0.0196 -0.0151 -0.0707
  219SOL    HW1  973   2.172   5.452   3.784 -0.0805  1.1732 -1.7292
  219SOL    HW2  974   2.283   5.356   3.821 -1.9680 -0.4131  0.0504
  220SOL     OW  975   1.618   0.904   1.813  0.3798 -0.0821 -0.0143
  220SOL    HW1  976   1.597   0.946   1.730  2.2611 -0.6493 -0.8473
  220SOL    HW2  977   1.683   0.962   1.853 -0.3270  0.0539  0.9444
  221SOL     OW  978   1.217   1.519   0.286 -0.6141 -0.4280  0.2859
  221SOL    HW1  979   1.235   1.584   0.218 -0.0191 -0.6058  0.2681
  221SOL    HW2  980   1.179   1.569   0.358 -1.8083 -0.3205 -0.3963
  222SOL     OW  981   5.325   1.616   2.262  0.1277 -0.5171  0.1580
  222SOL    HW1  982   5.420   1.615   2.278  0.2309 -0.4605 -0.4403
  222SOL    HW2  983   5.317   1.630   2.168 -0.4334 -2.7337 -0.1873
  223SOL     OW  984   3.347   2.133   1.919  0.0121 -0.3158 -0.0289
  223SOL    HW1  985   3.382   2.108   1.833 -0.8704  1.6706 -1.0339
  223SOL    HW2  986   3.329   2.226   1.911  0.1406 -0.0261  2.4432
  224SOL     OW  987   4.625   4.468   3.028 -0.1082  0.2357 -0.0319
  224SOL    HW1  988   4.631   4.559   2.998  0.1625  0.6099  1.1084
  224SOL    HW2  989   4.692   4.461   3.096  0.5252 -1.0931 -0.7663
  225SOL     OW  990   3.896   2.556   0.296 -0.6876  0.2926 -0.0431
  225SOL    HW1  991   3.807   2.540   0.328 -0.2859 -2.6863 -0.1309
  225SOL    HW2  992   3.889   2.547   0.201  0.1193 -3.0901  0.1062
  226SOL     OW  993   4.034   3.777   3.035 -0.2067 -1.0479 -0.0856
  226SOL    HW1  994   3.973   3.713   2.999  1.7174 -2.1617 -1.5952
  226SOL    HW2  995   4.005   3.790   3.125 -2.5603 -1.5717 -0.7039
  227SOL     OW  996   2.513   3.673   2.555 -0.4052 -0.0946  0.4419
  227SOL    HW1  997   2.574   3.603   2.532 -0.0378  0.3944 -0.0793
  227SOL    HW2  998   2.561   3.727   2.617 -0.7574 -0.4037  0.9927
  228SOL     OW  999   3.523   3.523   1.871  0.3138 -0.1175 -0.3382
  228SOL    HW1 1000   3.502   3.617   1.875 -0.9752 -0.3652 -0.8878
  228SOL    HW2 1001   3.581   3.515   1.796  2.8080  0.6274  1.3924
  229SOL     OW 1002   4.764   0.619   0.531  0.5389  0.3898  0.1777
  229SOL    HW1 1003   4.760   0.524   0.521 -1.8650  0.5982 -1.9661
  229SOL    HW2 1004   4.803   0.633   0.617 -0.2121 -2.5535  1.0999
  230SOL     OW 1005   4.457   3.820   1.561  0.5035 -0.0063  0.3511
  230SOL    HW1 1006   4.461   3.762   1.485  2.4781 -0.3837  0.6819
  230SOL    HW2 1007   4.548   3.843   1.578  0.0209  0.8142  2.0499
  231SOL     OW 1008   4.515   2.781   2.850 -0.0329 -0.8391 -0.4749
  231SOL    HW1 1009   4.501   2.726   2.773  0.9236 -1.8847  0.0674
  231SOL    HW2 1010   4.586   2.737   2.899 -0.0988  0.2026  0.6118
  232SOL     OW 1011   5.119   0.314   3.072  0.5650 -0.4461 -0.2679
  232SOL    HW1 1012   5.120   0.403   3.037  1.5563  0.4783  1.9646
  232SOL    HW2 1013   5.193   0.271   3.029  1.0269  0.2776 -0.2098
  233SOL     OW 1014   5.160   2.365   4.611 -0.1758  0.5659  0.1582
  233SOL    HW1 1015   5.099   2.415   4.665  1.6673  1.9830  1.0118
  233SOL    HW2 1016   5.227   2.335   4.672 -0.0013 -1.0221 -0.7534
  234SOL     OW 1017   1.185   0.986   4.825 -0.0529  0.2488  0.4240
  234SOL    HW1 1018   1.155   0.968   4.736 -1.7741  1.0119  0.8177
  234SOL    HW2 1019   1.161   0.909   4.876  3.2564 -1.3804 -0.1811
  235SOL     OW 1020   2.347   1.453   4.008  0.0485 -0.2516 -0.1731
  235SOL    HW1 1021   2.261   1.414   3.991  0.1549 -0.4101 -0.3594
  235SOL    HW2 1022   2.373   1.417   4.093 -0.2521  0.1264  0.0830
  236SOL     OW 1023   5.246   1.003   0.489 -0.0392  0.2363  0.0431
  236SOL    HW1 1024   5.236   1.093   0.460  1.5109  0.3046 -0.3919
  236SOL    HW2 1025   5.248   0.951   0.408  0.8909  0.0437  0.1692
  237SOL     OW 1026   5.467   1.487   0.503 -0.3702 -0.1372  0.2968
  237SOL    HW1 1027   5.389   1.477   0.557 -1.6947 -0.5142 -1.5958
  237SOL    HW2 1028   5.504   1.572   0.529  0.1927 -1.1758  3.1399
  238SOL     OW 1029   4.615   0.264   1.165 -0.3010  0.4966 -0.1164
  238SOL    HW1 1030   4.669   0.209   1.221 -0.5271  0.4953  0.1033
  238SOL    HW2 1031   4.561   0.314   1.226 -1.7980 -0.7546 -0.3535
  239SOL     OW 1032   0.360   2.480   0.100 -0.5528 -0.3377 -0.3002
  239SOL    HW1 1033   0.324   2.395   0.076 -0.5041 -0.4148 -0.1020
  239SOL    HW2 1034   0.325   2.497   0.188 -1.6820  0.4704 -0.8764
  240SOL     OW 1035   1.116   3.972   1.649  0.9025 -0.0514  0.4183
  240SOL    HW1 1036   1.117   3.933   1.561 -2.9190  1.3476 -0.4485
  240SOL    HW2 1037   1.085   3.902   1.706  1.4417 -0.3948  0.2977
  241SOL     OW 1038   1.981   3.602   2.729 -0.6663  1.0847 -0.2385
  241SOL    HW1 1039   1.888   3.580   2.726 -0.6982  1.3320 -2.2180
  241SOL    HW2 1040   1.984   3.683   2.780 -1.2244 -0.1927  1.9298
  242SOL     OW 1041   3.124   3.005   1.825 -0.2150 -0.4763  0.0436
  242SOL    HW1 1042   3.142   3.013   1.731 -2.2139 -1.6033 -0.4949
  242SOL    HW2 1043   3.182   2.935   1.855 -0.6048 -1.1339 -0.6951
  243SOL     OW 1044   2.098   4.338   3.388 -0.2526 -0.1202 -0.7175
  243SOL    HW1 1045   2.078   4.424   3.352 -1.9878 -0.0183  0.3558
  243SOL    HW2 1046   2.100   4.351   3.483  2.0185 -0.7997 -0.6190
  244SOL     OW 1047   0.868   2.731   4.105  0.6051 -0.3500  0.1579
  244SOL    HW1 1048   0.792   2.707   4.051  0.7772 -1.9988  0.6038
  244SOL    HW2 1049   0.856   2.824   4.122 -0.5202 -0.2393 -1.0340
  245SOL     OW 1050   3.980   4.569   0.976 -0.1976  0.1238 -0.0295
  245SOL    HW1 1051   4.059   4.595   1.023  0.2382  0.2524 -0.8218
  245SOL    HW2 1052   3.929   4.650   0.969 -0.6107 -0.0463  0.8585
  246SOL     OW 1053   1.483   0.498   1.240 -0.0332  0.0146 -0.6570
  246SOL    HW1 1054   1.499   0.404   1.253 -0.2368 -0.1287 -1.4168
  246SOL    HW2 1055   1.468   0.532   1.328  1.0299 -0.4830 -0.2660
  247SOL     OW 1056   1.147   3.529   0.675 -0.1017  0.4086  0.2340
  247SOL    HW1 1057   1.195   3.488   0.748  1.7713  1.0603 -0.5743
  247SOL    HW2 1058   1.110   3.609   0.712 -1.8186 -0.7674  1.2209
  248SOL     OW 1059   0.157   5.466   2.686  0.7004 -0.1537 -0.2551
  248SOL    HW1 1060   0.076   5.517   2.679  0.4382 -0.4456  0.5213
  248SOL    HW2 1061   0.189   5.484   2.774  2.3831  1.2436 -1.0971
  249SOL     OW 1062   1.237   5.515   2.270 -0.1776  0.5491 -0.5584
  249SOL    HW1 1063   1.279   5.569   2.202 -0.6035  1.1265 -0.3671
  249SOL    HW2 1064   1.160   5.565   2.296 -1.6927 -1.0473 -1.7619
  250SOL     OW 1065   2.940   4.994   2.303  0.5961  0.9287  0.1403
  250SOL    HW1 1066   2.917   4.944   2.225  0.0623  0.3042  0.6915
  250SOL    HW2 1067   3.016   4.948   2.339 -0.7034 -0.3220  1.3915
  251SOL     OW 1068   1.342   4.627   1.128 -0.0342  0.0558 -0.1749
  251SOL    HW1 1069   1.306   4.676   1.054 -0.6170  1.5900  1.0647
  251SOL    HW2 1070   1.435   4.652   1.130 -0.0655  0.1800 -0.2624
  252SOL     OW 1071   4.606   1.105   2.684 -0.2277  0.1980  0.9903
  252SOL    HW1 1072   4.688   1.056   2.686  0.1127  0.7274  0.2478
  252SOL    HW2 1073   4.606   1.150   2.600 -1.5634 -0.2582  0.7137
  253SOL     OW 1074   3.473   3.456   1.031 -0.3035 -0.3198 -0.5881
  253SOL    HW1 1075   3.535   3.518   1.069 -1.3864  0.5889 -0.2429
  253SOL    HW2 1076   3.486   3.375   1.081 -0.6207  0.4011  0.7031
  254SOL     OW 1077   5.326   1.565   3.648 -0.2423  0.7193  0.0663
  254SOL    HW1 1078   5.352   1.647   3.606 -0.6522  1.4977  1.2782
  254SOL    HW2 1079   5.409   1.523   3.672 -0.0157  0.4229 -1.1888
  255SOL     OW 1080   4.768   0.028   2.405  0.5033  0.4589  0.1247
  255SOL    HW1 1081   4.759   0.051   2.498 -0.6307  0.3041  0.0711
  255SOL    HW2 1082   4.693  -0.030   2.388  0.6131  0.6148 -0.9253
  256SOL     OW 1083   5.181   5.108   0.058  0.2238  0.1811 -0.2770
  256SOL    HW1 1084   5.109   5.045   0.052 -0.7466  1.3778 -4.2454
  256SOL    HW2 1085   5.149   5.176   0.117 -0.0584 -1.3489  1.4074
  257SOL     OW 1086   3.966   1.510   3.187  0.4393  0.5635 -0.0768
  257SOL    HW1 1087   3.903   1.444   3.159  0.4998 -0.1827  1.4374
  257SOL    HW2 1088   4.032   1.511   3.117  0.0752 -0.4969 -0.4571
  258SOL     OW 1089   1.943   5.431   0.651 -0.5943  0.6140 -0.1976
  258SOL    HW1 1090   1.922   5.337   0.653  0.7270  0.2911 -0.5078
  258SOL    HW2 1091   1.901   5.466   0.730 -0.0773 -0.4782  0.5919
  259SOL     OW 1092   3.443   3.607   4.696  0.3673  0.3919  0.3382
  259SOL    HW1 1093   3.506   3.646   4.636  0.8348  0.4287  0.8533
  259SOL    HW2 1094   3.370   3.670   4.698 -0.4705 -0.4344 -1.5633
  260SOL     OW 1095   3.671   1.700   3.125 -0.0039  0.5239 -0.6793
  260SOL    HW1 1096   3.662   1.780   3.073  2.4097 -0.5096 -2.9665
  260SOL    HW2 1097   3.765   1.682   3.124 -0.2800 -1.4173  1.2741
  261SOL     OW 1098   2.127   3.482   1.456 -0.2745 -0.5045 -0.6676
  261SOL    HW1 1099   2.075   3.481   1.537 -1.8351  1.6096 -1.5534
  261SOL    HW2 1100   2.104   3.565   1.414  3.2317  0.1735 -1.5513
  262SOL     OW 1101   0.834   2.765   1.705 -0.8139 -0.1208 -0.6754
  262SOL    HW1 1102   0.836   2.669   1.707  0.2412 -0.1340  1.8386
  262SOL    HW2 1103   0.763   2.788   1.766  0.8680  0.6229  1.1190
  263SOL     OW 1104   3.947   4.177   1.647 -0.0386 -0.4436 -0.6139
  263SOL    HW1 1105   3.906   4.263   1.640 -0.6021 -0.6150  0.4443
  263SOL    HW2 1106   4.024   4.191   1.702 -0.8205 -0.8231  0.6217
  264SOL     OW 1107   2.477   0.935   0.645  0.5808 -0.2931 -0.0490
  264SOL    HW1 1108   2.396   0.906   0.687  0.9585 -0.7726  0.3615
  264SOL    HW2 1109   2.510   0.858   0.599  1.6341 -0.5785  1.1200
  265SOL     OW 1110   3.084   4.597   3.037  0.1065 -0.3749  0.5515
  265SOL    HW1 1111   3.088   4.502   3.050  0.9241 -0.0921  2.8868
  265SOL    HW2 1112   3.119   4.633   3.118 -1.4416  1.9536  0.2727
  266SOL     OW 1113   1.409   4.145   0.395 -0.7279  0.0660  0.4017
  266SOL    HW1 1114   1.394   4.107   0.309 -2.8948 -0.4042  0.9172
  266SOL    HW2 1115   1.480   4.093   0.433  1.5564  1.4255 -1.6976
  267SOL     OW 1116   2.057   3.438   2.503 -0.0488  0.3644  0.0815
  267SOL    HW1 1117   2.014   3.499   2.562 -0.0348 -0.7460  1.3006
  267SOL    HW2 1118   2.147   3.471   2.495 -0.1489  0.7222  0.4042
  268SOL     OW 1119   1.618   2.046   4.890  0.3431  0.4326 -0.0845
  268SOL    HW1 1120   1.704   2.060   4.930 -0.4528 -1.5876  2.5930
  268SOL    HW2 1121   1.636   1.988   4.816  1.6059  2.7346 -1.7331
  269SOL     OW 1122   1.172   1.558   0.764  0.4959  0.4975  0.0281
  269SOL    HW1 1123   1.195   1.487   0.823 -1.1569  0.2452  0.4283
  269SOL    HW2 1124   1.239   1.625   0.779  0.3979  0.2278  1.8232
  270SOL     OW 1125   1.993   2.873   1.397  0.0142  0.1027 -0.4619
  270SOL    HW1 1126   1.989   2.902   1.306 -0.0695  2.6126  0.2661
  270SOL    HW2 1127   1.973   2.952   1.448 -1.2226 -1.4987  1.7127
  271SOL     OW 1128   1.488   0.052   4.331  0.1779  0.8700  0.1610
  271SOL    HW1 1129   1.521  -0.033   4.303  0.0854  0.7084  0.5319
  271SOL    HW2 1130   1.394   0.047   4.315  0.2984  1.2401 -0.6709
  272SOL     OW 1131   4.215   2.691   3.518  0.4835  0.6923 -0.1583
  272SOL    HW1 1132   4.121   2.685   3.500  0.5874 -1.0462 -0.3031
  272SOL    HW2 1133   4.224   2.771   3.569 -1.2939  0.1802  1.0984
  273SOL     OW 1134   2.402   4.595   0.262  0.2747 -0.3392  0.3224
  273SOL    HW1 1135   2.427   4.687   0.265  0.8719 -0.3896 -1.6642
  273SOL    HW2 1136   2.367   4.577   0.349 -0.0279  1.7997  0.7041
  274SOL     OW 1137   4.697   1.155   4.542  0.0461 -0.0984  0.1122
  274SOL    HW1 1138   4.726   1.214   4.612 -1.3171  0.6812  0.0492
  274SOL    HW2 1139   4.606   1.137   4.562 -0.1951 -0.3500 -1.1397
  275SOL     OW 1140   5.348   4.882   2.011 -0.6340  0.4177  0.3800
  275SOL    HW1 1141   5.326   4.975   2.017 -0.5136  0.3836  1.9503
  275SOL    HW2 1142   5.282   4.839   2.065  0.3368 -0.2094  1.1009
  276SOL     OW 1143   3.923   0.044   0.003  0.2472  0.0348 -0.3530
  276SOL    HW1 1144   3.859  -0.001  -0.053  0.8203  1.3354 -2.1365
  276SOL    HW2 1145   4.004  -0.005  -0.010 -0.1134 -1.0319  1.1633
  277SOL     OW 1146   5.228   1.371   0.619 -0.7065  0.4851  0.5081
  277SOL    HW1 1147   5.235   1.353   0.713 -1.0555  0.5427  0.5475
  277SOL    HW2 1148   5.140   1.340   0.595 -0.5397  0.2740  0.1558
  278SOL     OW 1149   2.328   0.772   0.017  0.0361 -0.2306  0.1764
  278SOL    HW1 1150   2.422   0.787   0.001 -0.2754  0.5466 -1.0813
  278SOL    HW2 1151   2.311   0.686  -0.021  0.0362  0.0907 -0.5771
  279SOL     OW 1152   1.432   3.100   2.375  0.0546 -0.1007  0.4104
  279SOL    HW1 1153   1.385   3.171   2.332 -0.4502 -1.1627 -0.8507
  279SOL    HW2 1154   1.518   3.137   2.396  0.9075  0.0687 -2.9105
  280SOL     OW 1155   3.273   4.085   1.835  0.2427 -0.1369  0.1207
  280SOL    HW1 1156   3.283   4.147   1.907 -0.1184  0.1297 -0.0564
  280SOL    HW2 1157   3.269   4.140   1.756 -0.6354 -0.3490  0.0123
  281SOL     OW 1158   0.544   2.141   3.958 -0.2699  0.3859 -0.1467
  281SOL    HW1 1159   0.544   2.164   4.051 -0.8159  0.0251 -0.0485
  281SOL    HW2 1160   0.451   2.128   3.937 -0.0708 -0.7394 -0.4243
  282SOL     OW 1161   3.258   4.815   4.587  0.2128 -0.0183 -0.0964
  282SOL    HW1 1162   3.206   4.736   4.604 -0.8399  0.4546 -0.9830
  282SOL    HW2 1163   3.197   4.875   4.545  1.4184  0.6552 -0.9472
  283SOL     OW 1164   2.088   5.171   4.342  0.3174  0.5464 -0.3625
  283SOL    HW1 1165   2.037   5.129   4.411 -0.1315 -1.7906 -1.9773
  283SOL    HW2 1166   2.178   5.140   4.356  0.2186  0.0370 -0.8216
  284SOL     OW 1167   0.767   4.496   2.613  0.2183 -0.1951  0.2103
  284SOL    HW1 1168   0.781   4.526   2.702 -1.6511 -0.7064  0.7172
  284SOL    HW2 1169   0.672   4.481   2.607  0.5503 -2.1891 -1.1906
  285SOL     OW 1170   0.759   2.996   4.087 -0.9564  0.7564  0.4449
  285SOL    HW1 1171   0.679   2.948   4.108 -0.2005 -1.4138 -1.3616
  285SOL    HW2 1172   0.751   3.017   3.994  0.4444  0.7764  0.3148
  286SOL     OW 1173   4.089   3.031   2.959 -0.7114 -0.0015  0.8125
  286SOL    HW1 1174   4.002   3.069   2.971 -0.7306  0.6366 -1.1002
  286SOL    HW2 1175   4.104   3.035   2.865  1.1451 -0.6697  1.0524
  287SOL     OW 1176   0.058   0.517   3.163  0.1913  0.8770  0.1036
  287SOL    HW1 1177  -0.032   0.500   3.193 -0.7519 -0.4131 -3.0523
  287SOL    HW2 1178   0.108   0.442   3.194 -0.7096 -0.3254 -1.2144
  288SOL     OW 1179   0.406   0.367   2.190  0.4402  0.0308 -0.0487
  288SOL    HW1 1180   0.398   0.324   2.105  0.4122 -1.9944  0.9144
  288SOL    HW2 1181   0.486   0.331   2.227 -0.2717 -0.1996  1.3391
  289SOL     OW 1182   1.408   2.846   3.261 -0.2973 -0.9515  0.3936
  289SOL    HW1 1183   1.351   2.845   3.184 -0.8855 -3.4220  0.7734
  289SOL    HW2 1184   1.384   2.767   3.310 -0.1811  0.6632  3.3172
  290SOL     OW 1185   3.751   2.799   5.554  0.3735 -0.2498 -1.0080
  290SOL    HW1 1186   3.712   2.879   5.589 -0.8485  0.0946 -3.0007
  290SOL    HW2 1187   3.689   2.730   5.578  0.8878 -0.4524 -0.2225
  291SOL     OW 1188   3.041   2.095   4.202  0.4579  0.5613 -0.4572
  291SOL    HW1 1189   2.984   2.079   4.127  0.6508 -1.6608 -0.1925
  291SOL    HW2 1190   3.115   2.144   4.166 -0.9637  2.3992 -1.0327
  292SOL     OW 1191   4.303   0.705   1.136  0.4538  0.3508  0.5633
  292SOL    HW1 1192   4.226   0.760   1.124  0.3170  0.2169  0.8271
  292SOL    HW2 1193   4.369   0.744   1.079  0.2333  0.5460  0.4396
  293SOL     OW 1194   3.617   0.563   0.536  0.3372 -0.0135  0.1857
  293SOL    HW1 1195   3.688   0.627   0.543 -0.8207  1.1548  2.4218
  293SOL    HW2 1196   3.568   0.591   0.458 -0.7986  2.6577  1.7039
  294SOL     OW 1197   5.538   2.989   1.686  0.4921 -0.5175 -0.4397
  294SOL    HW1 1198   5.517   3.082   1.684  0.3690 -0.5392 -0.1598
  294SOL    HW2 1199   5.456   2.946   1.662  0.3604 -0.5814  0.1190
  295SOL     OW 1200   5.023   0.323   3.976 -0.1477 -0.0989 -0.4538
  295SOL    HW1 1201   5.041   0.336   3.882  0.3939 -0.1125 -0.3569
  295SOL    HW2 1202   5.063   0.399   4.018 -1.9280  0.8418 -0.3802
  296SOL     OW 1203   4.423   0.625   4.299 -0.0027  0.1885  0.7073
  296SOL    HW1 1204   4.395   0.715   4.315 -0.3909 -0.0324  1.3226
  296SOL    HW2 1205   4.351   0.586   4.249  1.4786  1.0562 -2.3093
  297SOL     OW 1206   4.878   0.178   4.318 -0.8145  0.9060  0.7842
  297SOL    HW1 1207   4.867   0.171   4.413  0.9321 -0.7935  0.9230
  297SOL    HW2 1208   4.962   0.222   4.307 -0.7380  0.5861  0.0432
  298SOL     OW 1209   2.692   2.214   2.252  0.0553  0.8164  0.1969
  298SOL    HW1 1210   2.693   2.288   2.192 -1.1262  1.4865  0.9602
  298SOL    HW2 1211   2.601   2.208   2.282 -0.2318 -1.8175 -0.9065
  299SOL     OW 1212   4.936   4.993   3.225 -0.7450  0.2510  0.0614
  299SOL    HW1 1213   4.895   5.068   3.267 -0.3237  0.5969 -0.1367
  299SOL    HW2 1214   4.934   4.924   3.292  1.2412  1.2313  1.2197
  300SOL     OW 1215   5.175   4.352   1.682 -0.4809 -0.6811  0.2277
  300SOL    HW1 1216   5.084   4.381   1.690 -0.4201 -0.7359  1.2188
  300SOL    HW2 1217   5.216   4.419   1.628 -0.8676 -0.0861  0.6475
  301SOL     OW 1218   4.722   3.195   2.195 -0.3021  0.0018 -0.3059
  301SOL    HW1 1219   4.705   3.146   2.275  2.0131  0.2273  0.4114
  301SOL    HW2 1220   4.762   3.277   2.226  0.0951  0.3376 -1.6589
  302SOL     OW 1221   3.650   5.355   1.620  0.1930 -0.3399 -0.1764
  302SOL    HW1 1222   3.688   5.276   1.580 -1.7758 -1.0721 -0.7337
  302SOL    HW2 1223   3.559   5.354   1.592 -0.4760  0.8672  1.7716
  303SOL     OW 1224   4.598   2.012   0.153 -0.0934  0.1332  0.1750
  303SOL    HW1 1225   4.610   1.952   0.227 -0.2568 -0.3320 -0.1683
  303SOL    HW2 1226   4.589   1.954   0.077  1.5258  0.6352 -0.4294
  304SOL     OW 1227   3.767   2.394   3.305 -0.0194  0.5388 -0.0018
  304SOL    HW1 1228   3.804   2.363   3.222  2.0621  2.2581  0.2103
  304SOL    HW2 1229   3.758   2.489   3.294  0.9712  0.9061  1.9595
  305SOL     OW 1230   3.049   5.559   2.075 -0.1094 -0.0615 -0.5016
  305SOL    HW1 1231   3.010   5.552   2.162  1.2582 -0.4173  0.1166
  305SOL    HW2 1232   3.073   5.651   2.067  1.2467 -0.3202  0.2095
  306SOL     OW 1233   1.951   4.530   4.914 -0.1007 -0.0514  0.3017
  306SOL    HW1 1234   1.927   4.440   4.894  0.8387 -0.4158  0.7684
  306SOL    HW2 1235   1.958   4.533   5.010 -0.9484  0.7306  0.3488
  307SOL     OW 1236   2.268   0.702   3.251  0.5025  0.2796  0.3347
  307SOL    HW1 1237   2.191   0.759   3.257  1.0311  0.8894  1.7824
  307SOL    HW2 1238   2.238   0.617   3.285 -0.3612 -0.4687 -2.0770
  308SOL     OW 1239   2.302   1.180   0.315 -0.0399 -0.0602  0.2256
  308SOL    HW1 1240   2.296   1.085   0.306 -0.0194 -0.0800  0.4327
  308SOL    HW2 1241   2.395   1.197   0.331 -0.1161 -0.0413  0.6519
  309SOL     OW 1242   1.655   1.385   2.268 -0.1820  0.1253  0.3955
  309SOL    HW1 1243   1.739   1.354   2.236 -0.4312 -1.6232  1.3313
  309SOL    HW2 1244   1.625   1.317   2.328 -2.4263  0.5335 -0.1749
  310SOL     OW 1245   3.706   0.350   3.102  0.1371  0.7589 -0.2108
  310SOL    HW1 1246   3.653   0.325   3.178  0.8066 -0.4408 -0.1218
  310SOL    HW2 1247   3.703   0.446   3.102 -1.6411  0.7500  0.0489
  311SOL     OW 1248   1.476   3.447   0.848  0.3464  0.1546 -0.1183
  311SOL    HW1 1249   1.420   3.385   0.802 -0.1393 -1.7167  2.7706
  311SOL    HW2 1250   1.562   3.406   0.848  0.9332  1.2984 -1.3584
  312SOL     OW 1251   2.656   1.949   0.355  0.0550  0.1175 -0.5169
  312SOL    HW1 1252   2.567   1.959   0.387  1.3647  2.9708  2.9018
  312SOL    HW2 1253   2.668   1.855   0.343 -2.7016 -0.5308  1.1199
  313SOL     OW 1254   2.158   2.371   4.410 -0.4965 -0.3380  0.3584
  313SOL    HW1 1255   2.189   2.420   4.335 -0.7529 -3.2426 -1.8427
  313SOL    HW2 1256   2.236   2.330   4.447 -0.7254 -1.6107 -0.4973
  314SOL     OW 1257   4.990   2.544   4.753  0.5280  0.7380  0.5372
  314SOL    HW1 1258   5.040   2.625   4.765  1.7915 -0.0167  0.4921
  314SOL    HW2 1259   4.923   2.547   4.822  1.6533  1.0134  1.6517
  315SOL     OW 1260   3.647   3.563   4.055  0.4689  0.2871  0.2609
  315SOL    HW1 1261   3.707   3.493   4.030  0.3083  0.2777 -0.1059
  315SOL    HW2 1262   3.609   3.592   3.972  0.5648  0.8336  0.4065
  316SOL     OW 1263   3.097   2.960   4.947 -0.1155  0.1994  0.4444
  316SOL    HW1 1264   3.096   2.948   5.042 -0.5319  2.3416  0.7451
  316SOL    HW2 1265   3.177   3.009   4.930 -0.2594  0.1893 -0.2708
  317SOL     OW 1266   5.254   1.655   0.765 -0.3171 -0.5365 -0.3025
  317SOL    HW1 1267   5.299   1.731   0.803 -0.4849  0.0917 -1.3325
  317SOL    HW2 1268   5.238   1.679   0.674  0.3398 -2.1180 -0.8843
  318SOL     OW 1269   0.065   5.379   5.479 -0.1523  0.0568  0.1450
  318SOL    HW1 1270   0.052   5.314   5.548 -1.3072  0.8203  0.6716
  318SOL    HW2 1271  -0.009   5.439   5.487  0.5399  1.0864 -0.7363
  319SOL     OW 1272   1.040   4.022   2.956 -0.7355  0.1103 -0.0260
  319SOL    HW1 1273   1.040   4.107   2.999  0.4968  1.1143 -1.8431
  319SOL    HW2 1274   0.971   4.029   2.889  0.9896  0.6999 -1.8565
  320SOL     OW 1275   2.857   0.998   0.513  0.0578  0.0984  0.4596
  320SOL    HW1 1276   2.815   0.912   0.516 -1.2766  0.7310  0.6252
  320SOL    HW2 1277   2.785   1.059   0.499  0.9926  1.1932  0.3172
  321SOL     OW 1278   2.519   2.381   0.099  0.3519  0.4474 -0.0160
  321SOL    HW1 1279   2.530   2.444   0.169  0.5316 -1.1350  1.4435
  321SOL    HW2 1280   2.439   2.333   0.122  1.9499 -2.0489  0.7872
  322SOL     OW 1281   4.374   2.938   3.983 -0.1340 -0.0505  0.2543
  322SOL    HW1 1282   4.312   3.010   3.984  1.2656  1.2433  2.0688
  322SOL    HW2 1283   4.426   2.951   3.904  0.3523  1.2028  0.7568
  323SOL     OW 1284   4.175   1.111   4.951  0.1251 -0.5877 -0.1689
  323SOL    HW1 1285   4.173   1.043   4.884 -1.0514 -0.4532 -0.3003
  323SOL    HW2 1286   4.149   1.067   5.032  2.2440 -0.9079  0.3953
  324SOL     OW 1287   3.579   1.660   5.039  0.3708 -0.5720 -0.1174
  324SOL    HW1 1288   3.520   1.731   5.015 -2.6162 -2.8220 -0.1208
  324SOL    HW2 1289   3.625   1.638   4.959  0.2137  0.3559 -0.4740
  325SOL     OW 1290   1.451   4.549   2.112 -0.0773  0.0402 -0.0036
  325SOL    HW1 1291   1.533   4.598   2.114  0.6333 -0.7454 -3.3744
  325SOL    HW2 1292   1.414   4.560   2.200  3.9068 -0.1252  1.8992
  326SOL     OW 1293   2.047   2.757   4.383  0.7611  0.5515  0.1192
  326SOL    HW1 1294   1.966   2.765   4.333  1.4520  2.2686 -0.8394
  326SOL    HW2 1295   2.028   2.693   4.450 -0.8654 -0.3211 -1.1034
  327SOL     OW 1296   2.953   5.248   1.240  0.0790 -0.4617 -0.1257
  327SOL    HW1 1297   2.931   5.161   1.272 -0.5598 -0.1694  0.2529
  327SOL    HW2 1298   3.046   5.258   1.260  0.3146 -1.2846 -0.7364
  328SOL     OW 1299   4.300   3.668   3.131 -0.5569  0.2371  0.6881
  328SOL    HW1 1300   4.236   3.711   3.075 -0.8594  0.6028  1.3085
  328SOL    HW2 1301   4.287   3.574   3.115  1.4003  0.3473 -2.1163
  329SOL     OW 1302   3.337   1.771   1.910  0.0864 -0.1351 -0.0316
  329SOL    HW1 1303   3.343   1.866   1.911  0.6256 -0.0456 -3.2555
  329SOL    HW2 1304   3.425   1.741   1.886 -0.2881 -1.4131  0.0863
  330SOL     OW 1305   4.175   1.931   5.547 -0.5794  0.2012  0.4597
  330SOL    HW1 1306   4.130   1.905   5.467 -0.7769 -2.1133  1.2376
  330SOL    HW2 1307   4.253   1.976   5.518 -1.1499  0.2752 -1.0167
  331SOL     OW 1308   0.546   3.217   3.065  0.3400 -0.1927 -0.1295
  331SOL    HW1 1309   0.557   3.312   3.057  0.3650 -0.3073 -1.7079
  331SOL    HW2 1310   0.536   3.186   2.975 -2.1988 -1.4007  0.4697
  332SOL     OW 1311   3.365   1.976   4.702  0.1928  0.2714 -0.7014
  332SOL    HW1 1312   3.287   1.921   4.692 -0.5786  1.1928  0.0030
  332SOL    HW2 1313   3.342   2.058   4.658  0.3042  0.9675  0.4879
  333SOL     OW 1314   3.352   0.696   2.967  0.7456 -0.1106 -0.0541
  333SOL    HW1 1315   3.264   0.680   3.001  1.4746 -1.8822  1.1313
  333SOL    HW2 1316   3.395   0.610   2.968  2.5628  0.7285 -0.4393
  334SOL     OW 1317   2.115   3.422   2.190 -0.8561 -0.0422 -0.0577
  334SOL    HW1 1318   2.202   3.397   2.221 -0.7584  0.4833  0.1058
  334SOL    HW2 1319   2.131   3.472   2.109 -0.9388  0.7810  0.4160
  335SOL     OW 1320   4.790   1.913   1.878 -0.0647  0.5830  0.1516
  335SOL    HW1 1321   4.874   1.894   1.834 -0.7627 -0.1430 -0.9233
  335SOL    HW2 1322   4.734   1.840   1.853 -1.6262  2.0227 -0.7428
  336SOL     OW 1323   1.641   4.704   3.849 -0.0338  0.2962 -0.2468
  336SOL    HW1 1324   1.581   4.636   3.820 -0.5172  0.3522  0.6019
  336SOL    HW2 1325   1.612   4.726   3.937  1.6000 -0.0851  0.4196
  337SOL     OW 1326   4.433   5.382   3.943 -0.6160 -0.3419 -0.1062
  337SOL    HW1 1327   4.456   5.475   3.944  0.0581 -0.5043 -0.2567
  337SOL    HW2 1328   4.443   5.354   4.034 -1.6510 -0.0768  0.1044
  338SOL     OW 1329   2.928   4.776   5.021  0.1455 -0.3095 -0.4953
  338SOL    HW1 1330   2.986   4.709   5.056  0.8440  1.9161  3.2064
  338SOL    HW2 1331   2.841   4.754   5.056  0.2307  0.2227  0.0829
  339SOL     OW 1332   1.046   2.916   2.567  0.4577  0.8782  0.0139
  339SOL    HW1 1333   0.953   2.897   2.553  0.5402  0.7823 -0.4334
  339SOL    HW2 1334   1.052   2.938   2.659  0.2293 -0.6269  0.4268
  340SOL     OW 1335   4.009   4.543   2.555  0.2515 -0.1215  0.4495
  340SOL    HW1 1336   3.930   4.564   2.605 -2.6432 -2.4365 -2.6262
  340SOL    HW2 1337   4.041   4.461   2.594  0.2795  0.0738  0.8404
  341SOL     OW 1338   3.481   2.315   3.342  0.3931  0.4662  0.1515
  341SOL    HW1 1339   3.471   2.225   3.310  0.0329  0.6977 -0.3782
  341SOL    HW2 1340   3.575   2.332   3.335  0.8351 -0.6595  2.3876
  342SOL     OW 1341   2.458   2.583   1.673 -0.7088  0.3985  0.1400
  342SOL    HW1 1342   2.490   2.589   1.583  2.8978  0.3598  1.2465
  342SOL    HW2 1343   2.383   2.643   1.676 -0.4043  1.0596 -2.6700
  343SOL     OW 1344   2.085   0.392   2.996  0.6664  0.2587  0.1994
  343SOL    HW1 1345   2.029   0.440   3.056 -1.0527 -0.8049 -0.4952
  343SOL    HW2 1346   2.143   0.341   3.053  1.0991  1.5159  0.9191
  344SOL     OW 1347   1.930   3.778   0.423 -0.1073 -0.2249  0.0870
  344SOL    HW1 1348   1.890   3.843   0.481  1.7179 -1.4129  2.8683
  344SOL    HW2 1349   2.006   3.822   0.386 -0.4444  0.0627 -0.2813
  345SOL     OW 1350   1.993   0.188   1.365 -0.0562  0.6592  0.3192
  345SOL    HW1 1351   1.980   0.146   1.280  0.8029  1.9906 -0.5046
  345SOL    HW2 1352   2.078   0.156   1.396 -1.1796 -1.2965  1.6271
  346SOL     OW 1353   2.650   5.359   0.023  0.8233  0.2852 -0.1282
  346SOL    HW1 1354   2.698   5.279   0.042 -1.8557 -1.0324  1.6589
  346SOL    HW2 1355   2.669   5.417   0.097  0.1003 -0.0701  0.3536
  347SOL     OW 1356   5.445   4.149   3.417 -0.3661  0.3943  0.2570
  347SOL    HW1 1357   5.507   4.106   3.359  0.6105  1.9674  0.0760
  347SOL    HW2 1358   5.464   4.242   3.408  0.4396  0.7085  3.7251
  348SOL     OW 1359   4.352   0.846   2.408  0.5524  0.4682 -0.2214
  348SOL    HW1 1360   4.277   0.880   2.457 -0.4464  0.3596 -1.6285
  348SOL    HW2 1361   4.319   0.766   2.367  2.1599 -0.9490  1.0762
  349SOL     OW 1362   4.562   2.357   4.460  0.1219  0.4753 -0.1587
  349SOL    HW1 1363   4.476   2.356   4.501  0.6614  0.9524  1.0100
  349SOL    HW2 1364   4.620   2.312   4.522  0.6324 -0.3210 -1.1661
  350SOL     OW 1365   0.580   3.401   2.575  0.7631  0.3235 -0.3101
  350SOL    HW1 1366   0.494   3.401   2.533  2.2742  0.6437 -3.7435
  350SOL    HW2 1367   0.600   3.493   2.590  1.2361  0.3833 -1.2514
  351SOL     OW 1368   3.581   5.257   3.711  0.0626  0.4782  0.1050
  351SOL    HW1 1369   3.544   5.172   3.686  1.1809 -0.0250  0.0894
  351SOL    HW2 1370   3.651   5.272   3.647  0.4479  0.9975  0.6413
  352SOL     OW 1371   1.961   4.535   2.819 -0.0659  0.5436  0.3589
  352SOL    HW1 1372   1.958   4.600   2.749 -1.9407  0.6544  0.4862
  352SOL    HW2 1373   1.930   4.582   2.897  0.1752 -0.0658  0.8354
  353SOL     OW 1374   4.408   4.167   5.158  0.3470  0.3077  0.6493
  353SOL    HW1 1375   4.404   4.233   5.228 -0.2556  1.2546 -0.2470
  353SOL    HW2 1376   4.478   4.198   5.100  0.9038 -0.5216  0.8708
  354SOL     OW 1377   3.883   2.205   2.309  0.2096 -0.2835  0.3153
  354SOL    HW1 1378   3.882   2.214   2.214  0.5386  0.2940  0.3657
  354SOL    HW2 1379   3.793   2.227   2.336  0.1212 -0.4316  0.1456
  355SOL     OW 1380   4.431   0.467   2.436  0.2084  0.5875 -0.1342
  355SOL    HW1 1381   4.372   0.435   2.367  1.0600  0.8036 -0.9716
  355SOL    HW2 1382   4.402   0.556   2.454 -0.7193  0.1654  0.5983
  356SOL     OW 1383   2.660   4.471   3.972  0.2818 -0.2787 -0.4602
  356SOL    HW1 1384   2.687   4.512   3.890 -0.0936 -0.1382 -0.5153
  356SOL    HW2 1385   2.576   4.512   3.993  0.3908 -0.2882  0.0119
  357SOL     OW 1386   1.499   3.706   0.460  0.0673 -0.0043  0.3041
  357SOL    HW1 1387   1.406   3.704   0.483  0.1534 -0.9923  0.6302
  357SOL    HW2 1388   1.537   3.773   0.517 -0.5912  1.0791 -0.4873
  358SOL     OW 1389   4.134   3.987   2.432 -0.7280 -0.2552  0.5000
  358SOL    HW1 1390   4.184   4.068   2.422  0.3571 -0.7495  1.7066
  358SOL    HW2 1391   4.162   3.932   2.359 -0.1433 -0.2037  0.6830
  359SOL     OW 1392   0.736   2.013   1.541 -0.2242 -0.5586  0.6355
  359SOL    HW1 1393   0.659   2.053   1.501  0.0232  0.8295  1.4980
  359SOL    HW2 1394   0.713   2.001   1.633  0.6885  0.2037  0.9847
  360SOL     OW 1395   0.219   1.384   4.445  0.3594  0.2008  0.2312
  360SOL    HW1 1396   0.297   1.331   4.431  0.1950  0.3537 -1.5310
  360SOL    HW2 1397   0.251   1.465   4.486  0.8652 -0.4439  1.1313
  361SOL     OW 1398   1.119   1.889   1.065  0.1552  0.3200 -0.4850
  361SOL    HW1 1399   1.212   1.899   1.083 -0.1688  1.3839  0.7583
  361SOL    HW2 1400   1.111   1.903   0.971  1.5628 -2.5427 -1.1389
  362SOL     OW 1401   3.725   0.454   2.790  0.4432  0.1709  0.6283
  362SOL    HW1 1402   3.813   0.438   2.825  0.1194 -1.4099  0.7619
  362SOL    HW2 1403   3.683   0.508   2.857  1.2200  0.7391  0.6795
  363SOL     OW 1404   0.434   2.528   4.217  0.0355  0.3191  0.1122
  363SOL    HW1 1405   0.528   2.545   4.231  0.1173 -0.3790  0.4839
  363SOL    HW2 1406   0.416   2.452   4.272 -1.2267  1.6793  1.6313
  364SOL     OW 1407   3.814   3.270   0.212  0.0301  0.2173 -0.3221
  364SOL    HW1 1408   3.809   3.288   0.306 -0.0708 -2.3231  0.2192
  364SOL    HW2 1409   3.904   3.243   0.197 -0.0818  0.1395 -0.8865
  365SOL     OW 1410   2.492   2.732   3.360  0.1236  0.1971 -0.1222
  365SOL    HW1 1411   2.430   2.732   3.288 -1.7119  1.8119  1.3497
  365SOL    HW2 1412   2.578   2.743   3.318 -0.5573 -1.5700 -2.1725
  366SOL     OW 1413   2.919   4.702   2.034  0.0425  0.2122  0.1216
  366SOL    HW1 1414   2.957   4.711   1.947 -0.2529  0.2567 -0.0041
  366SOL    HW2 1415   2.992   4.718   2.094  0.5775 -1.1934 -0.1123
  367SOL     OW 1416   1.092   0.712   5.404 -0.0740  0.2415 -0.1981
  367SOL    HW1 1417   1.002   0.730   5.428  0.1926 -1.6688  2.8507
  367SOL    HW2 1418   1.124   0.794   5.366 -3.2713  0.6730 -2.3730
  368SOL     OW 1419   3.703   3.086   2.793  0.0512 -0.2047  0.6557
  368SOL    HW1 1420   3.732   3.114   2.706  1.5626  1.7796  1.7029
  368SOL    HW2 1421   3.727   2.994   2.798  1.8233  0.1592 -0.3235
  369SOL     OW 1422   2.298   2.779   2.540 -0.0063  0.6942  0.1928
  369SOL    HW1 1423   2.276   2.688   2.564 -1.1708  0.9298  0.0924
  369SOL    HW2 1424   2.266   2.831   2.613  3.2401  0.8646  1.6649
  370SOL     OW 1425   5.074   4.042   0.833 -0.5286  0.0730  0.0705
  370SOL    HW1 1426   5.090   3.965   0.780  0.9325 -0.1926  0.8346
  370SOL    HW2 1427   5.154   4.095   0.824 -1.4032  1.3953 -0.2486
  371SOL     OW 1428   1.994   0.221   5.447  0.2446 -0.1963 -0.2350
  371SOL    HW1 1429   1.950   0.302   5.473 -0.6857 -0.3645 -1.2081
  371SOL    HW2 1430   1.963   0.156   5.510 -0.2130 -0.1203 -0.3778
  372SOL     OW 1431   0.213   3.939   2.228  0.1157 -0.0405  0.4058
  372SOL    HW1 1432   0.245   4.029   2.224  0.2800 -0.0810  0.8009
  372SOL    HW2 1433   0.124   3.946   2.261  0.0548 -0.0072  0.2360
  373SOL     OW 1434   3.281   3.046   4.384  0.1225 -0.1269  0.2385
  373SOL    HW1 1435   3.253   2.972   4.330  2.2049 -0.3799 -0.5918
  373SOL    HW2 1436   3.377   3.042   4.383  0.2603  1.3550  1.9166
  374SOL     OW 1437   1.532   4.408   4.836  0.3910 -0.0164 -0.3249
  374SOL    HW1 1438   1.545   4.389   4.744  1.5847 -1.9564  0.1976
  374SOL    HW2 1439   1.525   4.322   4.878 -2.8724  0.7797  1.0790
  375SOL     OW 1440   3.182   4.926   4.171 -0.0135 -0.3559  0.1107
  375SOL    HW1 1441   3.161   4.840   4.136 -0.5546 -0.2466  0.1672
  375SOL    HW2 1442   3.119   4.940   4.242  0.2578 -0.0366  0.2963
  376SOL     OW 1443   2.159   5.050   2.850 -0.1934  0.0436  0.2868
  376SOL    HW1 1444   2.125   5.017   2.934 -1.8552 -0.7815 -0.6564
  376SOL    HW2 1445   2.242   5.004   2.838 -0.9996 -1.5419  0.4558
  377SOL     OW 1446   1.120   5.347   1.946 -0.3837 -0.4003  0.1574
  377SOL    HW1 1447   1.109   5.348   2.041  0.2643 -0.5720  0.2374
  377SOL    HW2 1448   1.051   5.288   1.914 -1.6157  0.8563  0.3755
  378SOL     OW 1449   4.413   3.276   5.437 -0.3350  0.1318  0.0089
  378SOL    HW1 1450   4.444   3.332   5.507  0.6820 -0.1463 -0.1974
  378SOL    HW2 1451   4.488   3.220   5.416 -0.8105 -0.1975 -0.8841
  379SOL     OW 1452   5.134   3.677   0.469  0.0599 -0.0643  0.0912
  379SOL    HW1 1453   5.210   3.638   0.512  0.9783 -0.5265 -1.8120
  379SOL    HW2 1454   5.063   3.614   0.485  0.5190 -0.4948  0.4733
  380SOL     OW 1455   2.835   0.448   4.143 -0.2106 -0.6721  0.5562
  380SOL    HW1 1456   2.784   0.529   4.152  0.0485 -0.5677  1.1509
  380SOL    HW2 1457   2.770   0.378   4.153 -0.6828 -0.5623 -1.4274
  381SOL     OW 1458   3.748   1.798   4.427 -0.2933  0.3574 -0.1589
  381SOL    HW1 1459   3.842   1.805   4.441 -0.2351 -0.2113 -0.2659
  381SOL    HW2 1460   3.716   1.888   4.435  0.5666  0.9264 -2.3482
  382SOL     OW 1461   0.729   1.867   2.044 -0.0324 -0.1609 -0.5089
  382SOL    HW1 1462   0.703   1.789   2.094  0.8760  1.8746  3.5272
  382SOL    HW2 1463   0.824   1.866   2.046 -0.0072  0.8774 -0.7066
  383SOL     OW 1464   4.405   1.246   5.055  0.2018 -0.2479  0.0381
  383SOL    HW1 1465   4.347   1.214   4.986 -0.1595  1.0998 -0.3084
  383SOL    HW2 1466   4.370   1.207   5.135 -0.6816 -0.1164 -0.2739
  384SOL     OW 1467   1.437   0.324   0.472  0.1308 -0.5417 -0.2626
  384SOL    HW1 1468   1.527   0.358   0.471  0.0185 -0.1821  0.4982
  384SOL    HW2 1469   1.440   0.245   0.418  1.3144 -1.5081  1.1111
  385SOL     OW 1470   2.970   5.515   2.336 -0.5545  0.0979 -0.3043
  385SOL    HW1 1471   2.999   5.442   2.391 -1.3631 -1.1808 -1.5160
  385SOL    HW2 1472   3.012   5.592   2.375  0.4576 -1.0150  0.9142
  386SOL     OW 1473   0.593   3.063   0.180  0.3862 -0.1773 -0.1444
  386SOL    HW1 1474   0.677   3.027   0.211  0.1610  1.0407  2.0681
  386SOL    HW2 1475   0.586   3.147   0.224 -1.7213  0.0283 -0.8041
  387SOL     OW 1476   1.911   2.219   2.721 -0.1321  0.3948  0.0387
  387SOL    HW1 1477   1.900   2.303   2.766  1.0692  0.8960 -0.5497
  387SOL    HW2 1478   1.823   2.182   2.717 -0.5292  1.1681  1.1798
  388SOL     OW 1479   3.158   0.843   2.721  0.0920 -0.1223  0.3494
  388SOL    HW1 1480   3.194   0.917   2.770 -1.9279  0.8171  0.4900
  388SOL    HW2 1481   3.112   0.791   2.788  0.3843 -0.8019  0.0288
  389SOL     OW 1482   3.782   3.315   4.019 -0.5654 -0.3884 -0.2139
  389SOL    HW1 1483   3.774   3.231   3.973 -1.4285 -0.3061 -0.2305
  389SOL    HW2 1484   3.779   3.292   4.111  1.1453 -0.5513 -0.1694
  390SOL     OW 1485   5.226   4.075   5.126 -0.0415  0.5753 -0.3182
  390SOL    HW1 1486   5.287   4.058   5.198 -0.1134  0.5545 -0.2618
  390SOL    HW2 1487   5.147   4.025   5.149  0.3529 -0.3928 -0.9887
  391SOL     OW 1488   3.346   0.634   1.498  0.6115 -0.5247 -0.3909
  391SOL    HW1 1489   3.315   0.720   1.527 -0.2806 -0.9792  0.0281
  391SOL    HW2 1490   3.425   0.654   1.448  1.1145  0.4388  0.7210
  392SOL     OW 1491   0.244   3.491   2.134 -0.0645  0.1172 -0.8782
  392SOL    HW1 1492   0.333   3.465   2.108 -0.3065 -1.1760 -0.4702
  392SOL    HW2 1493   0.222   3.431   2.206 -1.6658 -0.2969 -1.6800
  393SOL     OW 1494   5.238   1.974   5.106  0.0508 -0.0621  0.1799
  393SOL    HW1 1495   5.301   2.041   5.080  0.9285 -1.1538 -0.5753
  393SOL    HW2 1496   5.153   2.017   5.098  0.5699  0.8337 -0.7075
  394SOL     OW 1497   3.210   2.297   3.481 -0.5191 -0.2115 -0.1102
  394SOL    HW1 1498   3.177   2.234   3.545  0.8772  0.9503  1.8729
  394SOL    HW2 1499   3.292   2.258   3.449  0.3606  0.5402  1.1394
  395SOL     OW 1500   3.774   0.173   0.890  0.4522  0.1645 -0.2526
  395SOL    HW1 1501   3.781   0.117   0.813  1.1182  0.0273 -0.0994
  395SOL    HW2 1502   3.864   0.181   0.922  0.1342 -0.0657  0.7170
  396SOL     OW 1503   3.205   1.938   0.120 -0.2152  0.1593 -0.0398
  396SOL    HW1 1504   3.126   1.924   0.172 -0.8519  0.8789 -0.7889
  396SOL    HW2 1505   3.209   1.863   0.061  0.2875 -0.4526  0.7604
  397SOL     OW 1506   1.428   1.456   2.106 -0.0859 -0.2054  0.3545
  397SOL    HW1 1507   1.503   1.427   2.158 -0.9888 -1.0011  1.2561
  397SOL    HW2 1508   1.458   1.537   2.065  1.3731 -0.6641  0.4265
  398SOL     OW 1509   1.181   2.393   0.292  0.2797  0.0629  0.3055
  398SOL    HW1 1510   1.112   2.392   0.225  2.2079  2.2334 -1.9410
  398SOL    HW2 1511   1.221   2.306   0.286  0.0774  0.0415 -1.0522
  399SOL     OW 1512   2.725   4.895   3.170 -0.5755  0.1666  0.1328
  399SOL    HW1 1513   2.718   4.802   3.194 -0.4987  0.0406 -0.3091
  399SOL    HW2 1514   2.711   4.896   3.075 -0.5529  0.6056  0.1317
  400SOL     OW 1515   3.771   3.500   1.760 -0.2722 -0.1313  0.1170
  400SOL    HW1 1516   3.784   3.562   1.831  1.5534 -1.1838  0.7574
  400SOL    HW2 1517   3.755   3.554   1.683 -0.6432  1.0582  1.0009
  401SOL     OW 1518   5.000   5.210   4.387  0.0868 -0.5109  0.0486
  401SOL    HW1 1519   4.956   5.281   4.341  2.3301  0.3773 -0.8600
  401SOL    HW2 1520   5.073   5.252   4.432 -1.4632 -1.4536  3.8942
  402SOL     OW 1521   0.261   2.066   3.940 -0.6767 -0.0451  0.5302
  402SOL    HW1 1522   0.229   1.999   3.880  0.4803  0.8392 -1.1485
  402SOL    HW2 1523   0.206   2.057   4.018 -1.7033 -1.7480 -0.3399
  403SOL     OW 1524   2.383   0.850   4.157 -0.0519 -0.8492  0.1878
  403SOL    HW1 1525   2.415   0.760   4.154  0.4996 -0.6406 -0.2555
  403SOL    HW2 1526   2.346   0.866   4.070  0.2270 -0.5089  0.1306
  404SOL     OW 1527   3.432   0.610   5.220  0.7392 -0.1474  0.1296
  404SOL    HW1 1528   3.371   0.577   5.286 -1.1810 -0.1873 -1.5450
  404SOL    HW2 1529   3.494   0.663   5.269 -1.7853  1.5008  1.8003
  405SOL     OW 1530   2.217   5.535   3.387 -0.0780  0.0312  0.5277
  405SOL    HW1 1531   2.300   5.548   3.431 -0.8431  1.2941  1.6649
  405SOL    HW2 1532   2.205   5.440   3.387  0.3166 -0.0588  2.3794
  406SOL     OW 1533   4.410   1.849   3.222 -0.5570 -0.3946 -0.7249
  406SOL    HW1 1534   4.488   1.802   3.251 -0.6031 -0.0326 -0.0020
  406SOL    HW2 1535   4.351   1.781   3.189 -0.7510 -0.8935  0.5923
  407SOL     OW 1536   3.232   1.186   3.950 -0.2970 -0.6610 -0.2024
  407SOL    HW1 1537   3.145   1.192   3.911 -0.8447  0.3443  1.1160
  407SOL    HW2 1538   3.219   1.205   4.043  1.4825  0.8444 -0.1864
  408SOL     OW 1539   4.179   3.095   1.853  0.1523 -0.4180  0.3883
  408SOL    HW1 1540   4.123   3.172   1.844 -0.5834 -0.8025  1.5897
  408SOL    HW2 1541   4.250   3.123   1.910  1.0311 -0.0457 -0.8281
  409SOL     OW 1542   4.024   0.618   2.632 -0.0935  0.3155 -0.0914
  409SOL    HW1 1543   4.038   0.696   2.578  0.8447  1.4898  1.7575
  409SOL    HW2 1544   3.982   0.556   2.573 -1.7475  2.5255 -1.3932
  410SOL     OW 1545   1.247   0.615   2.598  0.1426  0.3245 -0.1218
  410SOL    HW1 1546   1.267   0.649   2.511  1.5590  0.8627  0.3866
  410SOL    HW2 1547   1.285   0.679   2.658  0.4875 -0.7727  0.8711
  411SOL     OW 1548   3.321   4.473   4.782 -0.3964  0.2391  0.3158
  411SOL    HW1 1549   3.249   4.439   4.836 -1.0139 -0.1548 -0.7273
  411SOL    HW2 1550   3.390   4.407   4.789 -0.7632 -0.1794  0.0287
  412SOL     OW 1551   3.711   1.371   2.125 -0.0624 -0.2088 -0.4857
  412SOL    HW1 1552   3.625   1.409   2.111  0.7755  1.4186 -1.5947
  412SOL    HW2 1553   3.769   1.446   2.136  1.5825 -1.1350 -2.0857
  413SOL     OW 1554   4.713   1.989   1.185  0.0118  0.4512  0.7497
  413SOL    HW1 1555   4.789   1.933   1.204 -0.2100 -0.2771 -0.3923
  413SOL    HW2 1556   4.741   2.077   1.210  1.2171  0.1816  0.4059
  414SOL     OW 1557   4.466   0.392   3.637 -0.1931 -0.4329  0.3464
  414SOL    HW1 1558   4.454   0.347   3.553 -2.3197  0.0536  0.3404
  414SOL    HW2 1559   4.483   0.483   3.613 -0.9560 -0.2622  0.4151
  415SOL     OW 1560   0.636   0.457   1.956  0.4756 -0.9435 -0.1556
  415SOL    HW1 1561   0.566   0.492   1.902  0.2130  0.1181  0.8358
  415SOL    HW2 1562   0.699   0.529   1.964  1.6649 -1.8475 -0.9520
  416SOL     OW 1563   4.202   2.369   3.324  0.0023 -0.0715  0.4889
  416SOL    HW1 1564   4.213   2.373   3.419 -0.9582  0.4007  0.5990
  416SOL    HW2 1565   4.233   2.282   3.299  1.1097  0.1330  1.1062
  417SOL     OW 1566   3.537   2.247   3.806 -0.2683 -0.5701 -0.8727
  417SOL    HW1 1567   3.479   2.207   3.871  0.2537 -1.5740 -1.0075
  417SOL    HW2 1568   3.590   2.175   3.773  0.7664  0.2460 -1.0656
  418SOL     OW 1569   2.252   2.172   1.139 -0.0043  0.4033 -0.2701
  418SOL    HW1 1570   2.226   2.234   1.071  0.9526  0.5289 -0.5334
  418SOL    HW2 1571   2.170   2.152   1.186 -0.5732  0.7381 -1.0994
  419SOL     OW 1572   1.944   1.981   3.013 -0.3879 -0.4802  0.2148
  419SOL    HW1 1573   1.983   1.971   2.926 -1.6414 -0.9662 -0.3123
  419SOL    HW2 1574   1.949   1.893   3.051  2.3283  0.1899  1.6308
  420SOL     OW 1575   3.931   0.997   0.144  0.8180 -0.1229  0.6141
  420SOL    HW1 1576   3.945   0.936   0.072  0.2138  0.4957 -0.0493
  420SOL    HW2 1577   4.009   1.053   0.144  0.8252 -0.1335  0.4439
  421SOL     OW 1578   0.524   0.411   3.689  0.8431 -0.0260 -0.0252
  421SOL    HW1 1579   0.440   0.405   3.735  0.8189 -1.0515 -0.1802
  421SOL    HW2 1580   0.554   0.501   3.705  0.1948  0.0413  0.8605
  422SOL     OW 1581   2.166   2.067   3.702 -0.6675  0.4580  0.3332
  422SOL    HW1 1582   2.121   2.045   3.784 -2.3353 -1.3508 -0.9852
  422SOL    HW2 1583   2.254   2.030   3.713 -0.8442  0.2880  1.3095
  423SOL     OW 1584   2.706   4.393   4.400 -0.2123 -0.4733 -0.2076
  423SOL    HW1 1585   2.615   4.422   4.403 -0.3963 -0.5890 -2.4917
  423SOL    HW2 1586   2.701   4.297   4.401 -0.3896 -0.5793 -2.8633
  424SOL     OW 1587   3.053   4.340   0.162 -0.0155 -0.2732 -0.0456
  424SOL    HW1 1588   3.057   4.435   0.158  0.5834 -0.2314  1.0775
  424SOL    HW2 1589   3.144   4.313   0.180 -0.4464 -0.9336  1.3360
  425SOL     OW 1590   4.025   4.338   1.353 -0.5943  0.2180 -0.6656
  425SOL    HW1 1591   4.071   4.271   1.403 -2.1217 -1.7179 -1.7404
  425SOL    HW2 1592   3.995   4.400   1.420 -1.4216 -1.5642  0.7212
  426SOL     OW 1593   4.082   4.455   3.289 -0.5566 -0.0457  0.6203
  426SOL    HW1 1594   4.099   4.549   3.279  2.3770 -0.5370 -0.0124
  426SOL    HW2 1595   4.029   4.449   3.369  0.2189  2.0922  1.3723
  427SOL     OW 1596   2.708   1.361   4.723  0.4272 -0.1006  0.7067
  427SOL    HW1 1597   2.769   1.431   4.746  0.4240 -0.4951  1.9896
  427SOL    HW2 1598   2.715   1.353   4.628  1.4129  0.7358  0.6964
  428SOL     OW 1599   2.319   3.726   1.609 -0.1787  0.2462 -0.0296
  428SOL    HW1 1600   2.229   3.725   1.576  0.0595 -0.5088 -0.7124
  428SOL    HW2 1601   2.359   3.802   1.567  0.0652 -0.5959 -1.4035
  429SOL     OW 1602   5.345   0.771   3.228  0.0878  0.3266 -0.2060
  429SOL    HW1 1603   5.253   0.770   3.204  0.4393 -0.3787 -1.6256
  429SOL    HW2 1604   5.384   0.837   3.170  0.7029 -0.3731 -0.6150
  430SOL     OW 1605   1.954   1.895   5.246 -0.2401 -0.5605  0.4699
  430SOL    HW1 1606   1.945   1.990   5.259  0.1925 -0.3352 -0.7282
  430SOL    HW2 1607   1.907   1.856   5.319 -3.2301  0.5681 -0.6900
  431SOL     OW 1608   0.306   1.086   2.995  0.5035 -0.5333  0.0104
  431SOL    HW1 1609   0.236   1.039   2.949 -0.5982  0.7045  0.3487
  431SOL    HW2 1610   0.261   1.133   3.065  1.7640 -0.1285  0.5811
  432SOL     OW 1611   4.017   2.430   4.826  0.0658  0.2970  0.7481
  432SOL    HW1 1612   4.095   2.447   4.879  1.0031 -0.6923 -0.2692
  432SOL    HW2 1613   3.998   2.513   4.783  1.0994  0.3207  0.3217
  433SOL     OW 1614   0.450   5.082   5.325 -0.5406  0.4163  0.0523
  433SOL    HW1 1615   0.474   5.154   5.384 -1.7570  0.5476  0.4136
  433SOL    HW2 1616   0.355   5.085   5.321 -0.6220 -1.1831  0.0748
  434SOL     OW 1617   1.110   4.828   2.421  0.4610  0.1685  0.2677
  434SOL    HW1 1618   1.056   4.835   2.499 -0.0719  0.9562 -0.1542
  434SOL    HW2 1619   1.048   4.825   2.348  0.9557 -0.0775 -0.1546
  435SOL     OW 1620   2.226   2.589   5.473  0.6684  0.1468 -0.0459
  435SOL    HW1 1621   2.270   2.639   5.542  0.6105 -0.3641  0.3705
  435SOL    HW2 1622   2.289   2.586   5.401  1.5212 -0.9565  0.7055
  436SOL     OW 1623   1.367   1.816   1.984 -0.2279  0.0121 -0.2723
  436SOL    HW1 1624   1.408   1.892   1.943  0.0795 -0.5366 -1.0076
  436SOL    HW2 1625   1.403   1.815   2.073 -0.0913  0.6177 -0.3168
  437SOL     OW 1626   2.895   1.327   1.043 -0.0328 -0.7755 -0.2736
  437SOL    HW1 1627   2.818   1.383   1.039 -1.2362 -2.2749  0.6699
  437SOL    HW2 1628   2.878   1.258   0.978  0.3243 -1.3407  0.2222
  438SOL     OW 1629   1.445   3.629   1.693 -0.0261  0.0208  0.3638
  438SOL    HW1 1630   1.502   3.631   1.770  0.7991  0.8595 -0.2394
  438SOL    HW2 1631   1.481   3.697   1.635 -1.5748  0.5063 -0.0857
  439SOL     OW 1632   3.848   3.072   3.104 -0.0847 -0.3033  0.2898
  439SOL    HW1 1633   3.855   2.993   3.158  1.1887 -1.0312 -0.8555
  439SOL    HW2 1634   3.771   3.118   3.138  1.2658 -0.1274  3.4556
  440SOL     OW 1635   5.435   0.491   4.387  0.1149 -0.1307  0.1285
  440SOL    HW1 1636   5.393   0.406   4.375  2.1439 -1.5508  2.1363
  440SOL    HW2 1637   5.512   0.472   4.441  1.5181  2.7700 -0.6350
  441SOL     OW 1638   1.485   1.185   1.159 -0.3442 -0.2697 -0.1301
  441SOL    HW1 1639   1.466   1.095   1.188  2.4990 -0.3431  1.9325
  441SOL    HW2 1640   1.543   1.175   1.084 -0.1225 -0.1852  0.0268
  442SOL     OW 1641   4.066   3.985   0.734 -0.0505  0.7351 -0.2803
  442SOL    HW1 1642   4.062   4.067   0.684 -0.1086  0.2826 -1.0279
  442SOL    HW2 1643   4.156   3.954   0.723 -0.3531  0.0835 -1.0121
  443SOL     OW 1644   2.058   2.031   0.246 -0.2590 -0.2276 -0.2001
  443SOL    HW1 1645   2.001   2.050   0.320  0.0134  0.4793 -0.1559
  443SOL    HW2 1646   2.147   2.036   0.282 -0.1546 -0.9732 -0.3412
  444SOL     OW 1647   3.338   4.406   3.406 -0.4765 -0.2860  0.1404
  444SOL    HW1 1648   3.370   4.334   3.460 -0.8142  1.1622  2.4182
  444SOL    HW2 1649   3.415   4.438   3.359 -0.0581 -1.2189  0.1654
  445SOL     OW 1650   1.062   5.262   0.873 -0.6395  0.8875 -0.2459
  445SOL    HW1 1651   0.997   5.257   0.943 -0.3753  1.8393  0.0907
  445SOL    HW2 1652   1.100   5.350   0.882  2.9587 -0.5993  1.6186
  446SOL     OW 1653   4.969   1.237   0.574  0.1541 -0.6094 -0.4434
  446SOL    HW1 1654   4.938   1.157   0.532  1.2575 -0.8025 -0.9030
  446SOL    HW2 1655   4.925   1.307   0.526  0.5637 -0.8749 -1.2194
  447SOL     OW 1656   2.959   2.643   3.082  0.4771  0.6616 -0.1475
  447SOL    HW1 1657   2.999   2.580   3.142  1.3045  1.2702 -0.0516
  447SOL    HW2 1658   2.986   2.615   2.995 -0.5168 -0.0723 -0.2421
  448SOL     OW 1659   2.088   4.929   3.375  0.1225 -0.0738  0.1793
  448SOL    HW1 1660   2.180   4.942   3.396 -0.0584  0.3832  0.7138
  448SOL    HW2 1661   2.065   4.846   3.418  0.2733 -0.1802  0.0588
  449SOL     OW 1662   0.454   4.960   5.050  0.0671  0.1546 -0.3880
  449SOL    HW1 1663   0.532   4.990   5.097 -0.3272 -0.6878  0.8389
  449SOL    HW2 1664   0.390   5.031   5.063  0.3673  0.5014 -0.7580
  450SOL     OW 1665   4.781   2.533   2.819  0.2842 -0.3816  0.6783
  450SOL    HW1 1666   4.693   2.496   2.816 -0.2973  0.9609  0.3937
  450SOL    HW2 1667   4.838   2.461   2.791 -0.8323 -0.9165 -0.3240
  451SOL     OW 1668   4.519   4.254   4.913  0.3726 -0.1282  0.3745
  451SOL    HW1 1669   4.583   4.187   4.887  1.5748  0.5551  1.4530
  451SOL    HW2 1670   4.450   4.249   4.847  1.3706 -1.1309 -0.6249
  452SOL     OW 1671   5.468   5.278   3.374  0.4751 -0.2485  0.1412
  452SOL    HW1 1672   5.469   5.188   3.408 -0.5787  0.6709  2.8153
  452SOL    HW2 1673   5.406   5.275   3.301 -1.2461 -1.2800  1.5626
  453SOL     OW 1674   1.123   3.603   0.283  0.3714  0.4751 -0.2286
  453SOL    HW1 1675   1.075   3.626   0.204  0.7661 -0.2510 -0.6883
  453SOL    HW2 1676   1.214   3.592   0.255  0.3233 -0.9820  0.0660
  454SOL     OW 1677   4.548   2.323   3.568  0.8393  0.1256  0.2368
  454SOL    HW1 1678   4.628   2.271   3.580  1.0951  0.3021 -0.6290
  454SOL    HW2 1679   4.579   2.406   3.531  0.2312  0.0762 -0.4123
  455SOL     OW 1680   2.684   0.313   5.330 -0.3932 -0.2814  0.0929
  455SOL    HW1 1681   2.656   0.358   5.410 -0.4525  0.7673 -0.5020
  455SOL    HW2 1682   2.617   0.246   5.316 -0.2570 -0.6382  1.0339
  456SOL     OW 1683   3.154   0.088   0.052  0.8098  0.0940  0.7183
  456SOL    HW1 1684   3.233   0.121   0.009 -1.0200  1.0549 -2.2368
  456SOL    HW2 1685   3.128   0.012   0.000 -1.8219  1.6488 -0.4490
  457SOL     OW 1686   2.274   1.077   5.416  0.0170  0.2900  0.3951
  457SOL    HW1 1687   2.362   1.105   5.443  0.8373 -1.2755 -0.4882
  457SOL    HW2 1688   2.217   1.150   5.440  1.9662  2.7840 -1.8670
  458SOL     OW 1689   1.467   1.075   2.130 -0.7479  0.5156  0.3165
  458SOL    HW1 1690   1.545   1.106   2.084 -0.8889 -1.9504 -1.7851
  458SOL    HW2 1691   1.502   1.023   2.202 -0.5333  1.8465  1.2257
  459SOL     OW 1692   2.475   0.202   2.709 -0.8566 -0.2770 -0.0001
  459SOL    HW1 1693   2.482   0.112   2.740 -0.3726 -0.3807 -0.3947
  459SOL    HW2 1694   2.479   0.255   2.789 -0.1818 -0.5689  0.1695
  460SOL     OW 1695   2.714   4.201   2.526 -0.2035  0.1089  0.4960
  460SOL    HW1 1696   2.664   4.144   2.585 -1.2630  0.0023 -0.4612
  460SOL    HW2 1697   2.709   4.156   2.442  1.9532 -0.1455  0.4689
  461SOL     OW 1698   3.441   2.634   5.259  0.6476  0.7393 -0.6604
  461SOL    HW1 1699   3.369   2.575   5.236  0.3812  0.3301  1.0592
  461SOL    HW2 1700   3.410   2.721   5.234 -0.3791  0.5459 -0.1016
  462SOL     OW 1701   2.404   5.135   4.750  0.2961  0.0768 -0.2052
  462SOL    HW1 1702   2.489   5.168   4.722  0.7028 -1.2029 -0.5446
  462SOL    HW2 1703   2.352   5.130   4.669  0.0165  0.5013 -0.0556
  463SOL     OW 1704   3.753   0.539   1.078 -0.4244 -0.3804 -0.1346
  463SOL    HW1 1705   3.683   0.496   1.030 -0.4034  0.6852 -1.1781
  463SOL    HW2 1706   3.732   0.523   1.170 -0.5416 -2.3430 -0.4754
  464SOL     OW 1707   3.414   4.910   3.083  0.3296  0.3282 -0.2563
  464SOL    HW1 1708   3.503   4.908   3.119  0.7200 -1.2511 -1.2002
  464SOL    HW2 1709   3.418   4.976   3.014  1.2103 -0.6884 -1.2376
  465SOL     OW 1710   0.981   0.665   3.969  0.0329 -0.1150 -0.4639
  465SOL    HW1 1711   0.987   0.754   3.933 -0.3701  0.0128 -0.2223
  465SOL    HW2 1712   1.069   0.629   3.960 -0.0724 -0.1284 -1.6944
  466SOL     OW 1713   4.405   3.845   4.261 -0.3936  0.2860 -0.2467
  466SOL    HW1 1714   4.429   3.754   4.279  0.4394  0.5697  0.1184
  466SOL    HW2 1715   4.348   3.840   4.184  0.1170 -0.5008 -0.5873
  467SOL     OW 1716   1.236   4.461   3.083 -0.0965 -0.1840 -0.0159
  467SOL    HW1 1717   1.251   4.491   2.993  0.2717 -3.5872 -1.2102
  467SOL    HW2 1718   1.319   4.423   3.110 -0.4107  0.1772  1.5628
  468SOL     OW 1719   3.382   5.093   2.353 -0.1221  0.5964 -0.1419
  468SOL    HW1 1720   3.400   5.023   2.415 -1.0827  3.5785  3.8828
  468SOL    HW2 1721   3.465   5.138   2.341  0.4406 -0.8722 -2.5399
  469SOL     OW 1722   2.597   0.532   4.747  0.4986  0.1797 -0.3013
  469SOL    HW1 1723   2.548   0.579   4.680  1.7190 -0.5088 -1.7257
  469SOL    HW2 1724   2.687   0.563   4.737  1.4657 -2.6936 -1.6343
  470SOL     OW 1725   4.944   2.948   1.231 -0.2291  0.4455  0.0341
  470SOL    HW1 1726   4.901   2.863   1.220 -0.4704  0.6969 -1.1995
  470SOL    HW2 1727   5.037   2.927   1.236 -0.2210  0.1384 -1.0561
  471SOL     OW 1728   0.939   3.345   5.361  0.1047  0.4184  0.0767
  471SOL    HW1 1729   0.853   3.377   5.334 -0.8219 -1.2925  0.8026
  471SOL    HW2 1730   0.930   3.331   5.456  1.2681  0.4702  0.2026
  472SOL     OW 1731   0.037   4.403   5.383  0.2193  0.5805  0.0331
  472SOL    HW1 1732  -0.045   4.355   5.372  0.7350 -0.0116 -1.6185
  472SOL    HW2 1733   0.105   4.341   5.355  1.1701  1.3087  0.6456
  473SOL     OW 1734   1.188   4.202   0.784 -0.5834  0.2874  0.2200
  473SOL    HW1 1735   1.234   4.119   0.797 -1.2614  0.1007  1.5680
  473SOL    HW2 1736   1.097   4.176   0.772 -0.7744  0.8233  0.4991
  474SOL     OW 1737   2.266   2.421   4.029  0.3151 -0.2605  0.2650
  474SOL    HW1 1738   2.253   2.462   3.943  2.2631  1.5539  0.7450
  474SOL    HW2 1739   2.280   2.495   4.088  4.4256 -1.4930  1.1518
  475SOL     OW 1740   4.392   3.279   0.406  0.2396  0.6703 -0.3063
  475SOL    HW1 1741   4.320   3.301   0.465  0.0453  0.8207 -0.5974
  475SOL    HW2 1742   4.366   3.316   0.321  0.2453 -0.0536 -0.6289
  476SOL     OW 1743   1.822   3.507   4.191 -0.3422  1.0788 -0.2960
  476SOL    HW1 1744   1.837   3.581   4.132  1.8174  0.8591 -0.1145
  476SOL    HW2 1745   1.872   3.529   4.269  0.9528 -0.8633 -0.5169
  477SOL     OW 1746   2.066   1.679   1.883 -0.1363  0.4654 -0.0682
  477SOL    HW1 1747   2.040   1.595   1.919 -0.3965  0.5269 -0.1089
  477SOL    HW2 1748   2.161   1.683   1.895 -0.0865  0.0459 -0.3227
  478SOL     OW 1749   3.265   4.610   2.424  0.4286 -0.3489  0.3197
  478SOL    HW1 1750   3.254   4.606   2.519 -1.6379  0.1776  0.1568
  478SOL    HW2 1751   3.202   4.547   2.390  0.5970  0.0251 -0.7185
  479SOL     OW 1752   4.146   2.244   1.000  0.3761  0.2887  0.2258
  479SOL    HW1 1753   4.207   2.204   0.938  1.7425 -0.1180  1.7806
  479SOL    HW2 1754   4.171   2.210   1.085 -1.8121  0.4045  0.9906
  480SOL     OW 1755   0.419   3.447   4.235 -0.1051 -0.6829  0.4507
  480SOL    HW1 1756   0.404   3.520   4.175  3.7130 -0.3150 -0.2924
  480SOL    HW2 1757   0.481   3.390   4.188  2.3178 -0.8801  3.5710
  481SOL     OW 1758   2.669   3.477   3.759  0.0673  0.1802 -0.1474
  481SOL    HW1 1759   2.596   3.536   3.742  1.4454  2.7871  2.0303
  481SOL    HW2 1760   2.656   3.449   3.850  0.1286 -1.9987 -0.7412
  482SOL     OW 1761   5.528   4.928   4.824  0.6404 -0.4014 -0.2920
  482SOL    HW1 1762   5.453   4.874   4.797 -0.0784  0.5116 -0.1740
  482SOL    HW2 1763   5.548   4.980   4.747 -0.5726  1.2671  0.4641
  483SOL     OW 1764   3.000   5.317   1.786  0.0945  0.1770 -0.0491
  483SOL    HW1 1765   2.961   5.260   1.720  0.9555 -1.0460  0.4578
  483SOL    HW2 1766   2.939   5.312   1.860  0.8687 -1.3235  0.5488
  484SOL     OW 1767   5.502   4.781   4.463  0.2969  0.2741  0.3787
  484SOL    HW1 1768   5.431   4.725   4.495  0.6029 -0.0595  0.4856
  484SOL    HW2 1769   5.567   4.720   4.428  0.0014  0.6208 -0.8356
  485SOL     OW 1770   0.233   2.176   0.837 -0.5515  0.3075 -0.7419
  485SOL    HW1 1771   0.291   2.191   0.911  0.0140 -1.1634 -0.8580
  485SOL    HW2 1772   0.290   2.141   0.768 -1.5795 -1.3983 -0.7850
  486SOL     OW 1773   0.780   3.729   4.658 -0.1930  0.2131  0.1649
  486SOL    HW1 1774   0.686   3.733   4.678 -0.8607  0.4231 -2.5378
  486SOL    HW2 1775   0.797   3.636   4.643  0.1217  0.1320  1.0284
  487SOL     OW 1776   3.136   1.300   0.979  0.3012 -0.2372  0.3238
  487SOL    HW1 1777   3.191   1.356   1.033 -1.0296  0.6208  0.8545
  487SOL    HW2 1778   3.046   1.328   0.999 -0.2819 -0.6840 -1.4653
  488SOL     OW 1779   5.289   4.565   5.162 -0.2917 -0.4728  0.9800
  488SOL    HW1 1780   5.385   4.568   5.158 -0.2914 -0.9368  0.4759
  488SOL    HW2 1781   5.266   4.620   5.237  0.3714 -0.3841  1.1227
  489SOL     OW 1782   1.667   5.242   1.758  0.0492  0.0077 -0.2489
  489SOL    HW1 1783   1.610   5.271   1.830  2.0215  0.3992  1.2314
  489SOL    HW2 1784   1.644   5.150   1.745  1.3298 -0.8332  2.6486
  490SOL     OW 1785   0.879   4.678   2.358  0.1146 -0.0612 -0.2505
  490SOL    HW1 1786   0.787   4.694   2.337  0.1037 -0.0477 -0.1915
  490SOL    HW2 1787   0.877   4.608   2.423  0.2494 -1.9175 -2.1446
  491SOL     OW 1788   2.571   2.086   1.497 -0.1005  0.1719  0.3267
  491SOL    HW1 1789   2.511   2.157   1.473  0.0659  0.3898  0.5430
  491SOL    HW2 1790   2.515   2.012   1.516 -0.2343 -0.1288 -1.1045
  492SOL     OW 1791   3.623   3.096   3.512 -0.3357  0.2526 -0.6246
  492SOL    HW1 1792   3.598   3.158   3.581 -1.4258 -0.6275 -0.1880
  492SOL    HW2 1793   3.703   3.054   3.546 -1.4430 -0.9415  0.6611
  493SOL     OW 1794   0.109   3.835   0.305  0.6357  0.2675 -0.1424
  493SOL    HW1 1795   0.170   3.768   0.275  0.3614  0.2752 -0.7426
  493SOL    HW2 1796   0.025   3.790   0.312  0.6437  0.3276  0.3828
  494SOL     OW 1797   3.763   1.708   1.131  0.1689 -0.2449  0.1725
  494SOL    HW1 1798   3.806   1.711   1.046  0.4965 -0.3028  0.3366
  494SOL    HW2 1799   3.834   1.695   1.194  0.0521  0.8379  0.5530
  495SOL     OW 1800   4.414   5.545   0.029 -0.7193  0.0316  0.3935
  495SOL    HW1 1801   4.499   5.585   0.011 -0.3187 -0.7693  0.4416
  495SOL    HW2 1802   4.434   5.452   0.042 -1.5115 -0.0519  1.1005
  496SOL     OW 1803   5.262   4.546   2.440 -0.1247  0.2841 -0.2923
  496SOL    HW1 1804   5.172   4.548   2.407 -0.8136 -0.1222  1.4227
  496SOL    HW2 1805   5.300   4.468   2.401 -0.6896  0.1639 -0.6143
  497SOL     OW 1806   5.320   3.560   4.683  0.0002  0.2871 -0.6252
  497SOL    HW1 1807   5.383   3.573   4.754 -0.6143 -1.7804  0.3752
  497SOL    HW2 1808   5.236   3.549   4.727 -0.6379  0.3973 -1.7753
  498SOL     OW 1809   0.824   1.938   2.346 -0.6809  0.4305  0.0346
  498SOL    HW1 1810   0.902   1.883   2.337  0.2809  2.0327 -3.6373
  498SOL    HW2 1811   0.846   2.001   2.414 -0.7349 -1.8481  2.3302
  499SOL     OW 1812   3.099   3.555   5.152 -0.4980 -0.7154 -0.2447
  499SOL    HW1 1813   3.172   3.611   5.178 -1.0140 -0.2277  0.1655
  499SOL    HW2 1814   3.121   3.526   5.063  0.3580 -0.8555  0.0030
  500SOL     OW 1815   1.718   1.372   3.807  0.4255  0.1165  0.3220
  500SOL    HW1 1816   1.717   1.452   3.860 -1.6287  0.4644 -0.1490
  500SOL    HW2 1817   1.756   1.306   3.864  1.1035  1.1622  1.1233
  501SOL     OW 1818   4.194   4.342   1.794  0.2699  0.5547  0.5184
  501SOL    HW1 1819   4.246   4.332   1.715 -0.3784  1.2790 -0.0195
  501SOL    HW2 1820   4.199   4.257   1.838  0.2751  0.0020 -0.5287
  502SOL     OW 1821   1.491   0.245   2.417  0.0268  0.7532  0.3516
  502SOL    HW1 1822   1.487   0.275   2.508  0.0148  0.4254  0.4611
  502SOL    HW2 1823   1.426   0.299   2.371  2.0487  2.9617 -0.0757
  503SOL     OW 1824   1.876   2.107   2.130  0.0728  0.1073  0.3702
  503SOL    HW1 1825   1.870   2.077   2.221 -2.2002 -0.6625  0.0231
  503SOL    HW2 1826   1.813   2.053   2.083  1.3000  0.4104 -1.7219
  504SOL     OW 1827   0.238   5.455   1.748 -0.5933  0.7949 -0.1978
  504SOL    HW1 1828   0.304   5.524   1.755 -0.5789  1.0256 -2.2117
  504SOL    HW2 1829   0.230   5.438   1.654 -0.4497 -2.1034  0.2436
  505SOL     OW 1830   0.466   0.480   1.033 -0.0302 -0.2409 -0.3166
  505SOL    HW1 1831   0.526   0.553   1.016  0.7232 -0.5306  1.0011
  505SOL    HW2 1832   0.434   0.496   1.121 -1.2200 -0.5815 -0.6724
  506SOL     OW 1833   2.350   1.855   0.103  0.1886 -0.1908  0.2907
  506SOL    HW1 1834   2.350   1.867   0.198 -0.1511  1.3826  0.1267
  506SOL    HW2 1835   2.323   1.764   0.090  0.5568 -0.5290  1.7024
  507SOL     OW 1836   1.413   2.156   1.503 -0.5182 -0.5667  0.2205
  507SOL    HW1 1837   1.375   2.144   1.590  0.8638 -0.2302  0.8988
  507SOL    HW2 1838   1.431   2.250   1.496  1.7640 -0.9153  0.6512
  508SOL     OW 1839   4.756   1.942   4.695 -0.1045  0.0957  0.4680
  508SOL    HW1 1840   4.688   1.874   4.687  0.5931 -0.4636 -0.9954
  508SOL    HW2 1841   4.837   1.898   4.672  0.6683  0.9695  1.4078
  509SOL     OW 1842   2.960   3.833   3.080  0.1254 -0.4733  0.1682
  509SOL    HW1 1843   3.026   3.899   3.096 -0.0935 -0.1647 -0.1912
  509SOL    HW2 1844   2.888   3.880   3.037  0.7108 -1.2751 -1.7712
  510SOL     OW 1845   5.331   3.985   3.076  0.3522 -0.2340 -0.3962
  510SOL    HW1 1846   5.247   4.029   3.079  0.0149 -0.6122 -2.7152
  510SOL    HW2 1847   5.316   3.901   3.119 -0.3549 -0.1248 -0.4210
  511SOL     OW 1848   3.152   4.448   1.759  0.5177 -0.3351 -0.5322
  511SOL    HW1 1849   3.125   4.460   1.850  0.3112  0.1390 -0.6493
  511SOL    HW2 1850   3.085   4.495   1.708  1.0307  0.0188 -0.8838
  512SOL     OW 1851   0.391   2.831   0.097 -0.3259  0.6615  0.6657
  512SOL    HW1 1852   0.422   2.770   0.029 -1.3036  1.7498 -0.8203
  512SOL    HW2 1853   0.466   2.886   0.117 -0.6237  1.8877 -1.3422
  513SOL     OW 1854   4.570   0.235   0.891 -0.2202  0.4078  0.1213
  513SOL    HW1 1855   4.650   0.273   0.855 -0.8829  2.1769  0.3787
  513SOL    HW2 1856   4.585   0.232   0.986 -0.9727  2.1915  0.3382
  514SOL     OW 1857   0.755   2.785   4.401  0.4066 -0.1438  0.4092
  514SOL    HW1 1858   0.802   2.820   4.477 -1.3347  2.7472  0.2911
  514SOL    HW2 1859   0.784   2.839   4.328 -1.3796  0.2267 -0.0711
  515SOL     OW 1860   2.011   5.491   3.814  0.7032  0.2040  0.2777
  515SOL    HW1 1861   1.948   5.544   3.765 -0.1240 -0.3280  0.7201
  515SOL    HW2 1862   1.980   5.496   3.905  1.2904 -0.0910  0.4971
  516SOL     OW 1863   0.607   5.545   4.923 -0.4603 -0.0612  0.1114
  516SOL    HW1 1864   0.534   5.490   4.894  0.8596 -1.5862 -0.4643
  516SOL    HW2 1865   0.646   5.577   4.842 -0.3014  0.5177  0.4097
  517SOL     OW 1866   3.468   4.627   4.964  0.8111 -0.7740  0.3082
  517SOL    HW1 1867   3.400   4.678   5.009  1.9641  0.7528  0.4086
  517SOL    HW2 1868   3.420   4.577   4.898 -0.3777  0.5841  0.0823
  518SOL     OW 1869   2.625   0.386   2.517  0.5636  0.5410  0.2339
  518SOL    HW1 1870   2.612   0.325   2.590  2.7747  0.5402  0.6989
  518SOL    HW2 1871   2.564   0.458   2.535 -1.9949 -1.3403 -0.2402
  519SOL     OW 1872   3.921   1.062   3.937 -0.0148 -0.4548  0.7924
  519SOL    HW1 1873   3.882   1.149   3.930  0.8212  0.0793  2.2626
  519SOL    HW2 1874   3.855   1.010   3.983 -1.4149 -1.2596 -1.9176
  520SOL     OW 1875   1.081   1.891   4.236  0.0460  0.0781  0.1299
  520SOL    HW1 1876   1.092   1.952   4.163  2.2853 -0.1530  0.2056
  520SOL    HW2 1877   1.096   1.945   4.314 -1.0620  0.0570  0.3664
  521SOL     OW 1878   5.401   0.463   4.770 -0.6438 -0.0761 -0.0663
  521SOL    HW1 1879   5.445   0.534   4.724  1.3202 -0.3821  1.1740
  521SOL    HW2 1880   5.465   0.392   4.770  0.4958  0.5710  4.7840
  522SOL     OW 1881   4.295   2.817   5.098  0.0134 -0.2553 -0.6371
  522SOL    HW1 1882   4.217   2.797   5.151  0.5160 -0.3172  0.1007
  522SOL    HW2 1883   4.343   2.734   5.094  1.4333  0.3904  1.3006
  523SOL     OW 1884   0.260   2.230   0.043  0.0005  0.1341  0.0036
  523SOL    HW1 1885   0.185   2.170   0.040 -0.2283  0.3997  0.2945
  523SOL    HW2 1886   0.335   2.174   0.061 -0.1805 -0.0929  0.0666
  524SOL     OW 1887   0.740   2.562   0.913 -0.1809  0.0361 -0.0126
  524SOL    HW1 1888   0.681   2.591   0.843 -0.0518  2.1439  0.7086
  524SOL    HW2 1889   0.693   2.580   0.994  0.9253  0.5464  0.5371
  525SOL     OW 1890   4.753   1.069   1.728 -0.6677 -0.2418  0.2884
  525SOL    HW1 1891   4.678   1.122   1.701 -1.9216 -2.2029 -0.3041
  525SOL    HW2 1892   4.782   1.027   1.647  1.0830  0.4786  0.5158
  526SOL     OW 1893   5.249   4.081   4.803 -0.0424  0.9403 -0.3667
  526SOL    HW1 1894   5.331   4.087   4.853 -0.2252 -0.4770  0.1309
  526SOL    HW2 1895   5.268   4.019   4.733 -0.8142  0.2538  0.0186
  527SOL     OW 1896   4.326   1.930   3.503 -0.2126  0.4871  0.5370
  527SOL    HW1 1897   4.304   2.020   3.481 -0.4741  0.5763  1.1258
  527SOL    HW2 1898   4.328   1.884   3.419  2.5323  1.5675 -0.1123
  528SOL     OW 1899   1.570   1.930   3.342  0.3772  0.4368  0.4215
  528SOL    HW1 1900   1.563   1.835   3.345 -1.7203  0.5674  1.2105
  528SOL    HW2 1901   1.664   1.947   3.346  0.7561 -1.5783  2.2740
  529SOL     OW 1902   4.461   3.484   2.118  0.7650 -0.0794 -0.4627
  529SOL    HW1 1903   4.533   3.488   2.055 -0.0459 -0.4195 -1.4403
  529SOL    HW2 1904   4.483   3.549   2.185  1.1185  1.1028 -1.6903
  530SOL     OW 1905   1.196   1.406   3.117 -0.2736 -0.0957  0.3517
  530SOL    HW1 1906   1.128   1.434   3.178 -0.7960 -0.9321  0.1649
  530SOL    HW2 1907   1.157   1.415   3.030 -0.3224 -1.0198  0.2672
  531SOL     OW 1908   4.068   0.516   2.123 -0.4102  0.2760 -0.4827
  531SOL    HW1 1909   4.101   0.522   2.034  3.4223 -0.1793  0.6912
  531SOL    HW2 1910   4.049   0.423   2.136 -0.2689  0.2230 -0.6504
  532SOL     OW 1911   3.680   0.332   3.695  0.8410  0.3084  0.2685
  532SOL    HW1 1912   3.689   0.395   3.623  1.7801 -0.4168 -0.2812
  532SOL    HW2 1913   3.670   0.386   3.773  1.4361  1.1476 -0.2095
  533SOL     OW 1914   0.557   2.330   2.785  0.1616 -0.1134 -0.4118
  533SOL    HW1 1915   0.498   2.379   2.842 -0.1098 -0.3094 -0.5223
  533SOL    HW2 1916   0.541   2.366   2.698  0.5780  0.1874 -0.3670
  534SOL     OW 1917   5.195   1.434   1.769 -0.4982  0.0728 -0.2083
  534SOL    HW1 1918   5.255   1.408   1.700 -0.0759  0.0557  0.1571
  534SOL    HW2 1919   5.116   1.382   1.754  0.9855 -3.0041  1.6540
  535SOL     OW 1920   1.489   1.865   2.219 -0.4557 -0.0974 -0.3605
  535SOL    HW1 1921   1.450   1.945   2.254  0.4272  0.1077  0.2052
  535SOL    HW2 1922   1.492   1.805   2.294 -0.9097 -0.5840 -0.7262
  536SOL     OW 1923   2.392   4.346   4.169 -0.0838  0.4643  0.2317
  536SOL    HW1 1924   2.343   4.284   4.114 -1.9165  1.9544  0.0956
  536SOL    HW2 1925   2.461   4.293   4.208 -0.4890 -1.2785 -1.2539
  537SOL     OW 1926   0.751   4.403   1.769  0.1886  0.5578 -0.4418
  537SOL    HW1 1927   0.789   4.316   1.774  2.5552  1.5572  0.2384
  537SOL    HW2 1928   0.662   4.393   1.804  0.9865 -1.2484  1.1855
  538SOL     OW 1929   3.359   3.439   4.281 -0.1671  0.5370  0.1526
  538SOL    HW1 1930   3.356   3.401   4.369  3.0983  0.8461  0.5438
  538SOL    HW2 1931   3.347   3.533   4.295  1.9017  0.7975  0.5835
  539SOL     OW 1932   4.074   4.213   0.606  0.1857  0.8818 -0.2662
  539SOL    HW1 1933   4.089   4.305   0.630  1.4990  0.5611  0.2174
  539SOL    HW2 1934   4.135   4.197   0.534  0.0256  0.3608 -0.2884
  540SOL     OW 1935   2.207   5.539   1.441  0.2728  0.1649 -0.1290
  540SOL    HW1 1936   2.123   5.497   1.420 -0.9666  2.9852 -1.3673
  540SOL    HW2 1937   2.272   5.487   1.395 -1.0791 -0.8001 -1.0381
  541SOL     OW 1938   3.003   3.698   0.170  0.5477 -0.8841 -0.4138
  541SOL    HW1 1939   2.954   3.616   0.174 -1.0971 -0.0331 -1.5719
  541SOL    HW2 1940   3.061   3.688   0.095  1.8575 -1.7286  0.6848
  542SOL     OW 1941   4.597   2.168   2.970 -0.5319  0.2826 -0.4258
  542SOL    HW1 1942   4.668   2.126   2.922 -2.0032  0.6450 -3.1374
  542SOL    HW2 1943   4.521   2.112   2.952 -1.6101  1.7030 -0.4245
  543SOL     OW 1944   1.587   3.387   1.640 -0.2528 -0.7609 -0.0825
  543SOL    HW1 1945   1.534   3.317   1.600  0.3415 -0.8853 -0.6638
  543SOL    HW2 1946   1.528   3.462   1.643 -0.1570 -0.5898 -1.7038
  544SOL     OW 1947   4.327   3.749   0.382 -0.0580 -0.4741  0.8722
  544SOL    HW1 1948   4.408   3.699   0.381  0.6169  0.5698 -0.6605
  544SOL    HW2 1949   4.352   3.835   0.417 -0.0656  0.4459 -1.2305
  545SOL     OW 1950   5.022   3.585   3.294 -0.1438 -0.5748  0.4251
  545SOL    HW1 1951   4.953   3.520   3.281 -0.3327 -0.8725  2.4603
  545SOL    HW2 1952   4.981   3.652   3.349  0.5440  0.4332 -0.2581
  546SOL     OW 1953   5.378   2.014   0.136 -0.2082  0.0562 -0.0755
  546SOL    HW1 1954   5.286   2.021   0.111 -1.4085 -3.9031  2.3019
  546SOL    HW2 1955   5.390   2.081   0.203 -1.7257 -0.1240  0.4135
  547SOL     OW 1956   3.126   0.628   2.541  0.4713  0.2974 -0.5645
  547SOL    HW1 1957   3.153   0.689   2.609  2.0842 -0.3777 -0.5452
  547SOL    HW2 1958   3.087   0.554   2.588  0.0947  0.5504 -0.4804
  548SOL     OW 1959   4.147   2.815   4.581 -0.2172 -0.4129 -0.2563
  548SOL    HW1 1960   4.182   2.821   4.670  0.1878  1.6845 -0.5077
  548SOL    HW2 1961   4.216   2.771   4.531  0.1420 -0.3609  0.1878
  549SOL     OW 1962   2.631   3.206   0.501  0.3649 -0.1451  0.2673
  549SOL    HW1 1963   2.586   3.269   0.558 -0.2510 -0.5610  0.2428
  549SOL    HW2 1964   2.563   3.172   0.444  0.5457 -1.3869  0.7681
  550SOL     OW 1965   3.321   0.937   4.185 -0.5049  0.2049  0.7230
  550SOL    HW1 1966   3.292   1.027   4.174 -1.2417 -0.0474  0.5089
  550SOL    HW2 1967   3.244   0.891   4.218  0.4081  0.0477  2.8254
  551SOL     OW 1968   0.013   1.548   1.747 -0.1364 -0.3296  0.2785
  551SOL    HW1 1969  -0.045   1.489   1.699 -0.0461 -0.3659  0.2131
  551SOL    HW2 1970   0.101   1.512   1.734 -0.0619 -0.0930  0.1046
  552SOL     OW 1971   1.244   3.128   3.049  0.1665 -0.1043 -0.1069
  552SOL    HW1 1972   1.263   3.141   2.956  0.6428  1.4542  0.1711
  552SOL    HW2 1973   1.251   3.034   3.063 -2.3402 -0.7067 -2.1526
  553SOL     OW 1974   3.802   3.587   3.588  0.2133  0.3213 -0.1427
  553SOL    HW1 1975   3.807   3.618   3.498 -0.9204 -0.9557 -0.6721
  553SOL    HW2 1976   3.833   3.497   3.585 -1.6363 -0.3869  0.3558
  554SOL     OW 1977   2.261   1.372   4.965 -0.9497 -0.1364 -0.3300
  554SOL    HW1 1978   2.313   1.427   4.906 -0.4727 -0.2539 -0.0233
  554SOL    HW2 1979   2.175   1.366   4.922 -0.7753  0.2223 -0.7420
  555SOL     OW 1980   4.872   1.665   1.597 -0.1647  0.6436  0.2148
  555SOL    HW1 1981   4.881   1.572   1.619  2.6373  0.3423 -1.6106
  555SOL    HW2 1982   4.896   1.711   1.678 -2.6627 -0.1053  1.4813
  556SOL     OW 1983   0.183   4.445   3.731 -0.4704 -0.3182  0.1333
  556SOL    HW1 1984   0.110   4.485   3.779 -1.7588 -2.0340 -0.3022
  556SOL    HW2 1985   0.145   4.367   3.689  1.0114  0.1292 -2.2397
  557SOL     OW 1986   3.596   1.483   2.470  0.7855 -0.9217 -0.2204
  557SOL    HW1 1987   3.595   1.523   2.557 -2.0351  0.2740 -0.6965
  557SOL    HW2 1988   3.636   1.550   2.414 -0.8048 -0.0895 -0.4233
  558SOL     OW 1989   1.343   0.884   0.150  0.4869 -0.7526 -0.0121
  558SOL    HW1 1990   1.386   0.967   0.129 -0.7334 -0.4429 -1.3955
  558SOL    HW2 1991   1.393   0.818   0.102  0.3676 -0.5920 -0.3585
  559SOL     OW 1992   3.944   0.368   1.761  0.0547 -0.7811  0.4927
  559SOL    HW1 1993   3.859   0.327   1.746  0.5411 -1.9469  0.7481
  559SOL    HW2 1994   4.006   0.295   1.757  0.9442 -0.0865  1.1642
  560SOL     OW 1995   0.989   5.150   1.786  0.4980  0.4480  0.6176
  560SOL    HW1 1996   0.993   5.195   1.702  0.1660  1.5481  1.1668
  560SOL    HW2 1997   1.062   5.088   1.784  0.0053 -0.1247 -0.7939
  561SOL     OW 1998   0.845   1.493   1.352  0.0531 -0.0541 -0.5774
  561SOL    HW1 1999   0.857   1.461   1.263 -0.6030  0.6188 -0.9230
  561SOL    HW2 2000   0.782   1.565   1.343 -0.0091  0.0302  0.4253
  562SOL     OW 2001   5.130   2.364   4.232  0.3234 -0.4117  0.1968
  562SOL    HW1 2002   5.055   2.350   4.174  1.4957 -2.2873 -1.0094
  562SOL    HW2 2003   5.129   2.288   4.291  1.9121 -1.1628 -0.6625
  563SOL     OW 2004   0.761   4.852   4.905  0.1671  0.2525  0.1779
  563SOL    HW1 2005   0.715   4.769   4.918  1.8199 -0.9836 -1.3006
  563SOL    HW2 2006   0.706   4.902   4.846 -0.0706 -0.5026 -0.2504
  564SOL     OW 2007   0.315   0.941   0.918 -0.5133  0.3322 -0.3767
  564SOL    HW1 2008   0.408   0.937   0.893 -0.9239 -0.0017 -1.9797
  564SOL    HW2 2009   0.308   1.019   0.973  1.2900 -1.3646  2.4868
  565SOL     OW 2010   2.201   1.098   2.645  0.6687 -0.7746 -0.5194
  565SOL    HW1 2011   2.284   1.127   2.683 -0.3991  2.0768 -0.1586
  565SOL    HW2 2012   2.156   1.053   2.716  0.7237  0.2098  0.1479
  566SOL     OW 2013   2.028   3.011   2.455 -0.2354  0.0739  0.1203
  566SOL    HW1 2014   2.055   3.078   2.517 -0.8898  0.2748  0.1956
  566SOL    HW2 2015   2.032   2.929   2.505 -1.5172  0.3267  0.6862
  567SOL     OW 2016   2.952   3.338   1.319 -0.0450  0.6107  0.0142
  567SOL    HW1 2017   3.047   3.347   1.309 -0.2502  2.1566 -0.8572
  567SOL    HW2 2018   2.917   3.420   1.286 -1.5599  1.2584  2.9270
  568SOL     OW 2019   3.572   4.961   0.338 -0.3272 -0.4002  0.2183
  568SOL    HW1 2020   3.624   4.890   0.300 -0.4006  0.0097 -0.6614
  568SOL    HW2 2021   3.557   4.933   0.429  0.5022 -1.0314  0.1784
  569SOL     OW 2022   1.098   5.086   4.342  0.0915 -0.0702 -0.3892
  569SOL    HW1 2023   1.055   5.071   4.258 -1.2165  0.1059  0.2086
  569SOL    HW2 2024   1.028   5.073   4.407  0.7466  1.0277  0.5873
  570SOL     OW 2025   3.974   1.963   1.242 -0.1595  0.2351  0.0509
  570SOL    HW1 2026   4.000   1.880   1.280 -0.8801  0.8149  1.8893
  570SOL    HW2 2027   3.946   1.941   1.153 -0.1011 -1.4391  0.4258
  571SOL     OW 2028   2.839   0.714   4.656 -0.2705 -0.7576 -0.1024
  571SOL    HW1 2029   2.861   0.683   4.744  2.1373  0.5747 -0.1467
  571SOL    HW2 2030   2.772   0.781   4.670  0.6356 -0.0237  0.8066
  572SOL     OW 2031   4.087   3.837   2.667  0.5484 -0.0066 -0.3343
  572SOL    HW1 2032   4.084   3.899   2.594  1.3345  0.0779 -0.2996
  572SOL    HW2 2033   4.011   3.780   2.653 -0.1207  0.8772 -0.4308
  573SOL     OW 2034   5.231   5.337   2.499 -0.3176 -0.0501  0.5295
  573SOL    HW1 2035   5.141   5.366   2.486 -0.5606 -1.0051 -0.0184
  573SOL    HW2 2036   5.269   5.403   2.557 -1.3821  0.3280  0.8269
  574SOL     OW 2037   2.323   0.239   2.500 -0.2207 -0.2127 -0.0129
  574SOL    HW1 2038   2.394   0.244   2.564  1.2692  2.9624 -1.6850
  574SOL    HW2 2039   2.355   0.175   2.435 -0.4597 -1.2866  0.8852
  575SOL     OW 2040   5.104   4.655   0.814  0.3380 -0.3415  0.4309
  575SOL    HW1 2041   5.101   4.680   0.722  1.7275 -0.0707  0.4297
  575SOL    HW2 2042   5.151   4.572   0.816 -0.6538 -0.9195  0.8165
  576SOL     OW 2043   4.171   1.140   1.133  0.6778  0.3913  0.1395
  576SOL    HW1 2044   4.162   1.127   1.039 -0.0307 -0.0450  0.2595
  576SOL    HW2 2045   4.217   1.223   1.142 -2.8106  2.5755 -0.5492
  577SOL     OW 2046   5.238   0.079   1.222 -0.5760  0.9134  0.0794
  577SOL    HW1 2047   5.214   0.154   1.277 -0.3560  0.1804  1.2052
  577SOL    HW2 2048   5.290   0.023   1.279 -0.6580 -0.0550 -0.7692
  578SOL     OW 2049   0.818   2.527   2.686 -0.0281  0.4255 -0.9080
  578SOL    HW1 2050   0.793   2.477   2.609 -0.9302 -0.6728  0.0637
  578SOL    HW2 2051   0.782   2.614   2.671  0.9650  0.6283 -2.3145
  579SOL     OW 2052   5.010   3.207   4.661 -0.0638 -0.1016  0.4150
  579SOL    HW1 2053   4.973   3.130   4.706  1.1336 -0.7922  0.2619
  579SOL    HW2 2054   5.095   3.177   4.628  1.8130  2.0460  2.8150
  580SOL     OW 2055   5.438   2.882   2.289 -0.3262 -0.0899 -0.2630
  580SOL    HW1 2056   5.508   2.879   2.224  0.5682  0.0136  0.6822
  580SOL    HW2 2057   5.438   2.972   2.321  0.0888 -0.4380  0.7727
  581SOL     OW 2058   1.518   3.144   5.181  0.4438  0.1696 -0.0255
  581SOL    HW1 2059   1.524   3.200   5.104 -1.0593  0.4815  0.0515
  581SOL    HW2 2060   1.584   3.076   5.167 -0.9569 -0.8039 -2.4865
  582SOL     OW 2061   5.504   3.020   3.489  0.2616 -0.6863  0.1425
  582SOL    HW1 2062   5.587   3.006   3.442 -1.0726  1.2849 -3.1541
  582SOL    HW2 2063   5.453   2.941   3.470  0.6107 -0.9717  0.3785
  583SOL     OW 2064   3.540   3.864   3.891  0.1840  0.6324 -0.6127
  583SOL    HW1 2065   3.578   3.782   3.859  0.8809  0.6143  0.2503
  583SOL    HW2 2066   3.469   3.882   3.829  1.4382  0.5608 -2.1372
  584SOL     OW 2067   3.549   3.554   4.980 -0.1900 -0.2700  0.0575
  584SOL    HW1 2068   3.542   3.646   5.007  1.5276 -0.5059  1.5467
  584SOL    HW2 2069   3.519   3.553   4.890 -0.9450  1.6202  0.2365
  585SOL     OW 2070   5.060   0.404   5.478  0.3655  0.0796 -0.3712
  585SOL    HW1 2071   5.029   0.313   5.476 -0.7006  0.4279 -0.2056
  585SOL    HW2 2072   5.072   0.424   5.570 -1.6803  0.8251 -0.2106
  586SOL     OW 2073   3.989   3.720   3.798  0.1612 -0.1397 -0.0716
  586SOL    HW1 2074   3.936   3.693   3.723 -0.7908  3.6560 -0.9690
  586SOL    HW2 2075   3.936   3.784   3.844  1.9248 -0.1487  2.1570
  587SOL     OW 2076   4.181   1.762   0.778  0.3737 -0.5342  0.3027
  587SOL    HW1 2077   4.121   1.797   0.711 -0.4266 -0.7215  0.9071
  587SOL    HW2 2078   4.268   1.772   0.739 -0.1663 -2.4365 -1.6360
  588SOL     OW 2079   4.081   4.552   2.296  0.7073 -0.6936  0.2936
  588SOL    HW1 2080   4.077   4.643   2.264  0.8279 -1.5314 -2.4220
  588SOL    HW2 2081   4.044   4.555   2.384 -1.2306  1.6683 -0.4894
  589SOL     OW 2082   5.119   5.462   4.427  0.0649  0.1324 -0.0165
  589SOL    HW1 2083   5.132   5.500   4.340  1.9590  0.4140  0.3502
  589SOL    HW2 2084   5.036   5.498   4.457 -1.1165 -0.7072 -2.0710
  590SOL     OW 2085   0.303   3.516   0.993 -0.3208  0.1091  0.0431
  590SOL    HW1 2086   0.261   3.465   1.063  2.7416 -0.3063  1.7394
  590SOL    HW2 2087   0.314   3.603   1.031 -1.6559  0.9130 -1.2763
  591SOL     OW 2088   1.720   3.834   4.805 -0.3002 -0.2888 -0.4074
  591SOL    HW1 2089   1.758   3.840   4.892 -0.7183  2.0465 -0.3221
  591SOL    HW2 2090   1.792   3.855   4.746 -0.4500 -0.0823 -0.5162
  592SOL     OW 2091   4.868   0.954   1.505  0.1485  0.0719 -0.0471
  592SOL    HW1 2092   4.804   0.931   1.438 -1.5246  0.2283  1.4225
  592SOL    HW2 2093   4.952   0.951   1.460 -1.1153  3.5061 -3.0612
  593SOL     OW 2094   0.744   4.240   2.493  0.2679  0.3458  0.6767
  593SOL    HW1 2095   0.789   4.320   2.520 -0.8789  0.6773  1.6719
  593SOL    HW2 2096   0.695   4.212   2.570 -0.4777 -0.5218 -0.0844
  594SOL     OW 2097   2.518   2.538   3.847 -0.1097  0.5339  0.3739
  594SOL    HW1 2098   2.442   2.556   3.791  2.4864  1.8626 -3.1630
  594SOL    HW2 2099   2.498   2.583   3.929 -2.6623  1.8384 -0.8222
  595SOL     OW 2100   3.659   4.202   3.767 -0.1739 -0.2290  0.2134
  595SOL    HW1 2101   3.606   4.136   3.812  0.0835 -1.4273 -1.1580
  595SOL    HW2 2102   3.749   4.182   3.794  0.1090 -1.6845 -1.6199
  596SOL     OW 2103   2.602   1.336   1.486  0.2040  0.1811 -0.3079
  596SOL    HW1 2104   2.693   1.309   1.476  0.1550 -1.6440  2.9316
  596SOL    HW2 2105   2.606   1.429   1.504  1.4575  0.0958 -0.0450
  597SOL     OW 2106   0.481   3.593   5.027 -0.0845  0.2246 -0.2048
  597SOL    HW1 2107   0.392   3.617   5.050 -0.2850  1.5762 -2.1519
  597SOL    HW2 2108   0.473   3.510   4.981 -0.2379  0.0137  0.1962
  598SOL     OW 2109   1.922   4.081   1.151 -0.4765 -0.3282 -0.0495
  598SOL    HW1 2110   2.008   4.055   1.184 -0.0890  0.1427 -0.6727
  598SOL    HW2 2111   1.899   4.157   1.204 -0.2938 -0.1668 -0.1995
  599SOL     OW 2112   1.166   4.251   4.594  0.5573  0.1287 -0.6979
  599SOL    HW1 2113   1.077   4.270   4.624  1.3832  0.6005  1.6261
  599SOL    HW2 2114   1.173   4.156   4.596  0.0735  0.0749 -1.1082
  600SOL     OW 2115   2.288   4.128   4.047  0.3548 -0.1444 -0.1250
  600SOL    HW1 2116   2.247   4.114   3.962 -2.3247  0.3705  0.9647
  600SOL    HW2 2117   2.226   4.089   4.110  3.1567 -2.3057  1.5525
  601SOL     OW 2118   1.339   2.204   1.179 -0.0794  0.2358  0.2180
  601SOL    HW1 2119   1.345   2.291   1.141 -1.3654  1.1831  2.0458
  601SOL    HW2 2120   1.398   2.207   1.255 -0.4234 -0.3447  0.5176
  602SOL     OW 2121   5.036   2.978   3.187 -0.3958 -0.2367  0.4019
  602SOL    HW1 2122   5.131   2.989   3.196 -0.3444  0.4012 -0.6326
  602SOL    HW2 2123   5.020   2.886   3.206  0.6624 -0.7389 -0.9489
  603SOL     OW 2124   0.560   0.382   3.199  0.2838 -0.1838 -0.5171
  603SOL    HW1 2125   0.649   0.358   3.172  0.6641 -0.2042  0.7012
  603SOL    HW2 2126   0.555   0.476   3.183  0.9543  0.0448  0.5055
  604SOL     OW 2127   2.614   0.755   3.980 -0.3104 -0.2069  0.3230
  604SOL    HW1 2128   2.653   0.754   4.067  0.7719 -1.5788 -0.1520
  604SOL    HW2 2129   2.620   0.847   3.953  0.4228  0.0293  1.2131
  605SOL     OW 2130   0.350   3.242   0.421 -0.6961  0.5256 -0.0784
  605SOL    HW1 2131   0.348   3.156   0.379  1.2089  0.7271 -0.6680
  605SOL    HW2 2132   0.354   3.223   0.515 -0.5397 -0.0138 -0.1936
  606SOL     OW 2133   1.372   4.048   0.132 -0.1860 -0.2380 -0.3923
  606SOL    HW1 2134   1.297   3.991   0.116  1.1631 -1.9119 -1.0871
  606SOL    HW2 2135   1.448   3.993   0.114  1.2145  1.8083 -1.0898
  607SOL     OW 2136   0.905   4.286   4.208 -0.3854 -0.2926 -0.2092
  607SOL    HW1 2137   0.878   4.272   4.299 -1.1608  0.6240 -0.2822
  607SOL    HW2 2138   0.990   4.330   4.215 -0.6073  0.0970  0.0859
  608SOL     OW 2139   1.862   1.565   2.417  0.7127  0.3409  0.4587
  608SOL    HW1 2140   1.784   1.510   2.417 -0.7329  2.2494 -1.6261
  608SOL    HW2 2141   1.870   1.595   2.508 -1.0713  0.1934  0.6953
  609SOL     OW 2142   4.174   0.174   3.590 -0.1978  0.5575 -0.0076
  609SOL    HW1 2143   4.246   0.147   3.532  0.4886 -4.7537  2.6986
  609SOL    HW2 2144   4.214   0.176   3.677 -2.7301  0.3442  1.2388
  610SOL     OW 2145   0.590   5.497   1.466  0.3735  0.0624 -0.0306
  610SOL    HW1 2146   0.633   5.428   1.515 -0.8368 -0.1998  0.7238
  610SOL    HW2 2147   0.610   5.577   1.514  0.5973  0.0373 -0.0836
  611SOL     OW 2148   5.048   2.148   0.408  0.2497 -0.1040 -0.0160
  611SOL    HW1 2149   5.013   2.061   0.389  0.9583 -0.7245  1.3359
  611SOL    HW2 2150   5.123   2.132   0.466  1.3128  1.3195 -0.9166
  612SOL     OW 2151   0.632   0.641   1.319  0.1853 -0.7883  0.5200
  612SOL    HW1 2152   0.538   0.650   1.304  0.0028 -0.6205  1.6381
  612SOL    HW2 2153   0.671   0.711   1.268 -0.3729 -0.3429  0.6869
  613SOL     OW 2154   4.738   1.689   0.776  0.2581  0.2896 -0.5186
  613SOL    HW1 2155   4.815   1.661   0.826 -0.4594 -0.9219 -0.0294
  613SOL    HW2 2156   4.728   1.781   0.797  0.3917 -0.0199  1.0308
  614SOL     OW 2157   2.615   3.765   5.542  0.1222  0.1238 -0.3507
  614SOL    HW1 2158   2.654   3.699   5.484 -1.0975 -1.1623  0.2262
  614SOL    HW2 2159   2.683   3.831   5.553  0.0715  1.0483 -4.1279
  615SOL     OW 2160   1.238   4.543   2.334 -0.2600  0.6101  0.3874
  615SOL    HW1 2161   1.211   4.615   2.391 -2.2609 -0.0699  0.3831
  615SOL    HW2 2162   1.261   4.472   2.394 -1.8799  0.0626  0.4128
  616SOL     OW 2163   3.715   1.571   3.900 -0.0230 -0.1941  0.6102
  616SOL    HW1 2164   3.621   1.553   3.907 -0.0885 -0.6422 -0.9897
  616SOL    HW2 2165   3.726   1.603   3.811  1.2100  0.8202  1.0999
  617SOL     OW 2166   5.118   4.753   0.533 -0.1661  0.6414 -0.5403
  617SOL    HW1 2167   5.089   4.840   0.505  1.0129  1.2149 -0.0594
  617SOL    HW2 2168   5.214   4.758   0.530 -0.0747 -0.4384  0.1177
  618SOL     OW 2169   4.264   2.325   2.651  0.3261  0.1385  0.3878
  618SOL    HW1 2170   4.193   2.388   2.665 -0.0499 -0.0967 -0.3673
  618SOL    HW2 2171   4.248   2.291   2.562 -0.2409 -1.9559  1.2281
  619SOL     OW 2172   0.096   2.949   2.102  0.5228 -0.0985 -0.0561
  619SOL    HW1 2173   0.091   2.905   2.017 -1.4153  1.6274 -0.9145
  619SOL    HW2 2174   0.104   3.042   2.081  0.9683  0.2808  1.6652
  620SOL     OW 2175   4.308   2.639   2.526  0.1211 -1.1607 -0.7848
  620SOL    HW1 2176   4.241   2.622   2.591  0.1050 -0.6228 -0.6575
  620SOL    HW2 2177   4.261   2.679   2.453  0.5205  0.7154 -0.0589
  621SOL     OW 2178   2.708   2.684   4.193 -0.3572 -0.4633  0.2596
  621SOL    HW1 2179   2.646   2.708   4.125  0.0178 -0.7987 -0.2042
  621SOL    HW2 2180   2.654   2.652   4.265 -0.7413 -0.3514  0.0217
  622SOL     OW 2181   0.099   2.625   2.852  0.2060  0.4661 -0.5801
  622SOL    HW1 2182   0.027   2.684   2.828 -0.2726 -0.3487 -1.1800
  622SOL    HW2 2183   0.120   2.649   2.942 -0.0230  1.5036 -0.7829
  623SOL     OW 2184   3.592   1.141   0.889 -0.2814  0.0031  0.2042
  623SOL    HW1 2185   3.683   1.170   0.884 -0.1766 -0.1360  1.1409
  623SOL    HW2 2186   3.544   1.202   0.831  0.1473  1.1667  1.0293
  624SOL     OW 2187   4.472   4.103   4.154  0.3147 -0.3658 -0.1126
  624SOL    HW1 2188   4.420   4.038   4.200  1.4696 -0.9668  0.3812
  624SOL    HW2 2189   4.417   4.130   4.081 -0.8961 -0.5826  0.6875
  625SOL     OW 2190   0.288   0.870   4.099 -0.2749 -0.2376 -0.8177
  625SOL    HW1 2191   0.333   0.826   4.171  1.1013 -0.9006 -2.0328
  625SOL    HW2 2192   0.268   0.957   4.133 -0.6534 -0.9073  0.7276
  626SOL     OW 2193   4.773   1.128   0.104 -0.0761 -0.5715 -0.2711
  626SOL    HW1 2194   4.800   1.212   0.140  1.9579 -0.9294 -0.8385
  626SOL    HW2 2195   4.683   1.117   0.134 -0.5093  1.9276 -0.4565
  627SOL     OW 2196   3.913   5.178   1.994  0.1001 -0.1549  0.4544
  627SOL    HW1 2197   3.994   5.218   1.962 -0.1084 -0.6143 -0.6911
  627SOL    HW2 2198   3.843   5.231   1.957 -0.1640 -1.1375 -0.5004
  628SOL     OW 2199   4.560   4.963   3.762 -0.4217  0.0866 -0.2209
  628SOL    HW1 2200   4.613   4.901   3.710 -0.8287  1.1601 -2.0006
  628SOL    HW2 2201   4.538   4.914   3.841  2.3131 -0.7805  0.1256
  629SOL     OW 2202   5.512   1.367   4.614  0.6542 -0.6065  0.9625
  629SOL    HW1 2203   5.555   1.354   4.529  1.2227 -0.5849  1.2492
  629SOL    HW2 2204   5.570   1.325   4.677  1.3884  1.3155  1.6306
  630SOL     OW 2205   3.364   4.901   4.841 -0.3289  0.0152 -0.0246
  630SOL    HW1 2206   3.322   4.843   4.777  0.4388  0.6151 -1.0880
  630SOL    HW2 2207   3.451   4.863   4.854 -0.4290 -0.0207  0.5647
  631SOL     OW 2208   0.014   0.010   0.908 -0.3198  0.5900 -0.2258
  631SOL    HW1 2209   0.077   0.081   0.916 -1.2056  1.2655  1.2885
  631SOL    HW2 2210   0.064  -0.070   0.927  0.7538  0.7081 -2.2433
  632SOL     OW 2211   2.512   5.197   5.050  0.2557 -0.2134  0.1459
  632SOL    HW1 2212   2.465   5.208   4.967 -1.7248  0.9464  1.3395
  632SOL    HW2 2213   2.485   5.111   5.081  0.8042 -0.5436 -0.2752
  633SOL     OW 2214   4.777   0.539   1.027  0.0256  0.0772  0.0823
  633SOL    HW1 2215   4.761   0.450   1.057 -0.4881 -0.4003 -1.5389
  633SOL    HW2 2216   4.700   0.562   0.975  0.2238  1.4129  0.3296
  634SOL     OW 2217   4.767   0.646   0.129 -0.3592 -0.3958 -0.6359
  634SOL    HW1 2218   4.764   0.561   0.173  0.3108  0.1403  0.4922
  634SOL    HW2 2219   4.723   0.705   0.189  1.0686  0.4663 -0.4059
  635SOL     OW 2220   4.380   3.096   0.118 -0.2382 -0.0402 -1.1260
  635SOL    HW1 2221   4.352   3.185   0.097  0.1198 -0.0511 -1.6842
  635SOL    HW2 2222   4.364   3.046   0.038 -0.3244 -0.4522 -0.8544
  636SOL     OW 2223   2.569   5.196   1.384 -0.4227  0.3711 -0.2583
  636SOL    HW1 2224   2.579   5.160   1.296  1.0584 -1.4165  0.5885
  636SOL    HW2 2225   2.561   5.119   1.441  0.8489  1.4193  1.4208
  637SOL     OW 2226   5.388   0.420   3.978  0.6377 -0.1733 -0.3211
  637SOL    HW1 2227   5.465   0.476   3.969  0.3871  0.4798  1.2024
  637SOL    HW2 2228   5.320   0.466   3.928  0.6336  0.5140  0.2956
  638SOL     OW 2229   4.374   3.088   3.414  0.4176 -0.2506  0.2075
  638SOL    HW1 2230   4.311   3.045   3.357  1.4576 -0.7747 -0.5922
  638SOL    HW2 2231   4.435   3.019   3.439  0.8131  0.2865  0.7557
  639SOL     OW 2232   0.441   3.774   2.277  0.6832  0.3024  0.2425
  639SOL    HW1 2233   0.360   3.819   2.253  1.1649  0.6000 -0.9453
  639SOL    HW2 2234   0.468   3.815   2.359  0.8624  1.8935 -0.5648
  640SOL     OW 2235   4.363   0.356   3.866  0.3558  0.7131 -0.2568
  640SOL    HW1 2236   4.407   0.435   3.898  0.8937  0.0159  0.7947
  640SOL    HW2 2237   4.397   0.344   3.778  4.1336 -0.9998  1.1915
  641SOL     OW 2238   3.923   3.716   4.818 -0.0824  0.1704  0.0806
  641SOL    HW1 2239   3.918   3.795   4.872  3.6810  0.4405  0.3071
  641SOL    HW2 2240   3.927   3.644   4.881 -0.3585  0.0569 -0.0283
  642SOL     OW 2241   4.292   0.905   0.449 -0.2385 -0.0722  0.0050
  642SOL    HW1 2242   4.213   0.871   0.407  0.6613 -1.1414 -0.8985
  642SOL    HW2 2243   4.334   0.828   0.487  1.3424  0.1428 -1.2143
  643SOL     OW 2244   4.151   3.245   3.593 -0.1373 -0.1850 -0.0236
  643SOL    HW1 2245   4.140   3.333   3.629  0.7513  0.0673 -0.3257
  643SOL    HW2 2246   4.243   3.224   3.612 -0.1905 -0.8085 -0.4614
  644SOL     OW 2247   0.168   3.585   0.762 -0.3001 -0.4325  0.2229
  644SOL    HW1 2248   0.085   3.565   0.804 -0.6473  0.1136 -0.1900
  644SOL    HW2 2249   0.234   3.564   0.828 -0.7629 -0.8016  0.5775
  645SOL     OW 2250   0.749   5.210   2.954  0.0943 -0.3794  0.2220
  645SOL    HW1 2251   0.828   5.164   2.982  1.4766  1.8291  0.2412
  645SOL    HW2 2252   0.753   5.209   2.858  1.0121  1.0127  0.2153
  646SOL     OW 2253   1.420   3.811   1.981 -0.5229 -0.0091  0.2155
  646SOL    HW1 2254   1.440   3.723   1.948  0.1998 -0.0909  0.8491
  646SOL    HW2 2255   1.375   3.796   2.064  1.7750  0.1946  1.5791
  647SOL     OW 2256   4.682   2.677   4.546 -0.4580 -0.2830  0.2162
  647SOL    HW1 2257   4.773   2.667   4.516 -0.6302  1.6255 -1.2228
  647SOL    HW2 2258   4.657   2.591   4.578  1.1932 -1.4247 -1.3297
  648SOL     OW 2259   0.293   0.413   3.289 -0.1077  0.0861 -0.0989
  648SOL    HW1 2260   0.237   0.340   3.315 -0.7281  0.8063  0.6564
  648SOL    HW2 2261   0.382   0.382   3.302 -0.3518 -0.7049 -0.2757
  649SOL     OW 2262   2.246   0.200   4.078  0.3512  0.5410 -0.1002
  649SOL    HW1 2263   2.206   0.145   4.010  0.2992  2.2851 -1.5533
  649SOL    HW2 2264   2.327   0.231   4.038 -1.0264  3.9035 -0.5903
  650SOL     OW 2265   3.339   0.436   3.333  0.2262  0.3867 -0.2359
  650SOL    HW1 2266   3.322   0.491   3.409 -0.8112  1.2726 -1.0795
  650SOL    HW2 2267   3.292   0.354   3.351  0.9547  0.1253  0.5709
  651SOL     OW 2268   0.901   0.897   4.405  0.0766  0.5444 -0.4475
  651SOL    HW1 2269   0.874   0.861   4.320  2.4056  0.1694 -1.1067
  651SOL    HW2 2270   0.829   0.955   4.430 -0.9213  0.2679 -2.4166
  652SOL     OW 2271   3.356   0.909   0.602 -0.3108 -0.5828  0.0378
  652SOL    HW1 2272   3.443   0.938   0.628 -0.0621  1.5160 -2.6881
  652SOL    HW2 2273   3.299   0.937   0.674  0.8762  0.7912  0.4959
  653SOL     OW 2274   1.242   5.377   3.573 -0.3111 -0.2085  0.2934
  653SOL    HW1 2275   1.241   5.397   3.666  0.0746  0.7275  0.1129
  653SOL    HW2 2276   1.333   5.354   3.554 -0.9711 -3.8480  0.7855
  654SOL     OW 2277   3.009   1.473   0.436  0.1037  0.0310 -0.6838
  654SOL    HW1 2278   3.037   1.478   0.527  0.1631  1.0513 -0.7467
  654SOL    HW2 2279   3.090   1.464   0.386  0.0927 -0.1924 -0.6638
  655SOL     OW 2280   4.114   4.881   0.363  0.3549  0.5162 -0.1531
  655SOL    HW1 2281   4.181   4.828   0.319  0.9911  0.8624  0.3675
  655SOL    HW2 2282   4.165   4.941   0.418 -0.4349 -0.4343  1.6702
  656SOL     OW 2283   2.355   1.300   4.270  0.2479 -0.2472  0.4275
  656SOL    HW1 2284   2.355   1.332   4.360 -2.7577  2.2997 -0.3163
  656SOL    HW2 2285   2.287   1.232   4.269  1.5653 -1.6396  0.3754
  657SOL     OW 2286   3.794   2.532   1.253 -0.4161 -0.1245  0.1408
  657SOL    HW1 2287   3.727   2.575   1.307  0.6765 -0.6447  2.0194
  657SOL    HW2 2288   3.746   2.464   1.205 -1.6270  1.1362 -0.5184
  658SOL     OW 2289   1.837   1.316   4.127 -0.3441 -0.2075 -0.5766
  658SOL    HW1 2290   1.818   1.334   4.219 -3.3422 -1.8719 -0.7202
  658SOL    HW2 2291   1.790   1.384   4.079  0.1399 -0.0983 -0.9016
  659SOL     OW 2292   4.629   3.931   3.001 -0.1727 -0.5500  0.0106
  659SOL    HW1 2293   4.716   3.972   3.005 -1.5241  2.5524  1.0859
  659SOL    HW2 2294   4.626   3.874   3.077  0.8569 -0.5853  0.0457
  660SOL     OW 2295   0.876   3.390   3.649  0.4005 -0.4184 -0.5170
  660SOL    HW1 2296   0.937   3.321   3.623 -1.7267 -1.0911 -4.5052
  660SOL    HW2 2297   0.906   3.467   3.601  0.6496  0.5172  1.0704
  661SOL     OW 2298   0.481   4.947   2.640 -0.2618  0.3023 -0.2668
  661SOL    HW1 2299   0.448   4.984   2.721 -2.4607  0.1556 -1.0302
  661SOL    HW2 2300   0.482   4.853   2.654 -0.9607  0.2558 -0.5108
  662SOL     OW 2301   1.877   4.383   4.141 -0.6509 -0.3943 -0.0282
  662SOL    HW1 2302   1.806   4.447   4.151  2.0142  2.9701 -0.5580
  662SOL    HW2 2303   1.925   4.388   4.223  1.5531  1.0668 -1.2951
  663SOL     OW 2304   5.218   0.103   1.926 -0.1502 -0.1551  1.2013
  663SOL    HW1 2305   5.181   0.128   2.010  0.0103  0.4020  1.1107
  663SOL    HW2 2306   5.218   0.008   1.927 -1.2087 -0.1705  1.3660
  664SOL     OW 2307   4.279   2.788   2.266  0.5800  0.1726 -0.2878
  664SOL    HW1 2308   4.292   2.741   2.184  2.1966  0.3260 -0.1502
  664SOL    HW2 2309   4.194   2.831   2.256  1.1697  0.9674 -2.2687
  665SOL     OW 2310   4.747   3.646   2.862  0.7055 -0.4954  0.1244
  665SOL    HW1 2311   4.662   3.602   2.863  1.3701 -1.8286  0.4444
  665SOL    HW2 2312   4.790   3.613   2.783  1.4287 -0.8820  0.6651
  666SOL     OW 2313   5.324   0.140   3.684 -1.0871 -0.0948  0.2862
  666SOL    HW1 2314   5.343   0.081   3.611  1.3044  0.1995  0.5868
  666SOL    HW2 2315   5.410   0.162   3.720 -2.1061  1.1217  2.1338
  667SOL     OW 2316   4.375   4.030   3.020 -0.1556 -0.0917  0.2680
  667SOL    HW1 2317   4.382   3.958   2.956 -0.2409  0.3468 -0.2401
  667SOL    HW2 2318   4.457   4.025   3.070  0.8229  0.7490 -1.1459
  668SOL     OW 2319   4.873   1.825   5.002  0.2264 -0.1236 -0.0789
  668SOL    HW1 2320   4.860   1.889   4.932 -3.0177 -0.3312  0.1879
  668SOL    HW2 2321   4.864   1.876   5.083  0.1976 -0.4821  0.1453
  669SOL     OW 2322   2.212   2.007   4.364 -0.1082  0.1856 -0.5727
  669SOL    HW1 2323   2.210   1.926   4.314 -1.1342  0.7841 -1.5558
  669SOL    HW2 2324   2.303   2.037   4.358  0.1674 -0.6268 -0.6039
  670SOL     OW 2325   1.869   3.529   3.609  0.2761 -0.0468 -0.2225
  670SOL    HW1 2326   1.831   3.609   3.574 -0.0174  0.2381  0.7401
  670SOL    HW2 2327   1.946   3.557   3.657 -0.4219 -0.2110  1.0252
  671SOL     OW 2328   3.385   2.877   4.645  0.5883  0.2120  0.5486
  671SOL    HW1 2329   3.361   2.942   4.578  0.6453 -0.2769  0.0448
  671SOL    HW2 2330   3.472   2.848   4.619  0.8410  0.4241  1.1573
  672SOL     OW 2331   3.158   2.877   2.973 -1.0827 -0.2839  0.2543
  672SOL    HW1 2332   3.197   2.927   3.045 -2.0198  1.2052 -0.2096
  672SOL    HW2 2333   3.228   2.866   2.910 -1.0233  1.1902  0.0181
  673SOL     OW 2334   4.141   1.016   3.758  0.4312 -0.5332  0.0045
  673SOL    HW1 2335   4.050   0.999   3.781 -0.2749  1.1464 -1.3120
  673SOL    HW2 2336   4.138   1.097   3.707  2.5113 -1.1248 -1.1779
  674SOL     OW 2337   1.286   1.179   1.818 -0.3000  0.0778 -0.0041
  674SOL    HW1 2338   1.264   1.254   1.762  0.9530  0.9616  0.6299
  674SOL    HW2 2339   1.278   1.214   1.907  1.9087 -0.0283  0.2746
  675SOL     OW 2340   5.363   3.176   4.510 -0.4685 -0.4643  0.5188
  675SOL    HW1 2341   5.313   3.239   4.458 -1.4574 -0.7106  1.1377
  675SOL    HW2 2342   5.454   3.206   4.505 -0.7412  0.2587 -0.2542
  676SOL     OW 2343   0.160   4.951   5.524 -0.2921 -0.0625 -0.0487
  676SOL    HW1 2344   0.162   4.859   5.550  0.7697  0.0026  0.1735
  676SOL    HW2 2345   0.110   4.994   5.593  1.3919 -0.1014  1.2807
  677SOL     OW 2346   4.249   4.148   1.399 -0.3125 -0.6618 -0.4131
  677SOL    HW1 2347   4.273   4.122   1.310  1.2302 -1.4490  0.2007
  677SOL    HW2 2348   4.216   4.068   1.440 -2.7369  0.0792 -0.7699
  678SOL     OW 2349   3.191   5.455   0.470  0.2272  0.1586  0.4852
  678SOL    HW1 2350   3.199   5.376   0.416  0.0304  1.3810 -1.4222
  678SOL    HW2 2351   3.133   5.429   0.541  0.7149 -1.6047  0.2958
  679SOL     OW 2352   3.103   2.587   2.743  0.0307 -0.5328  0.1570
  679SOL    HW1 2353   3.101   2.518   2.809 -1.8454  0.7636  1.5581
  679SOL    HW2 2354   3.179   2.640   2.766  1.3125 -1.8800 -0.7550
  680SOL     OW 2355   0.502   4.550   1.473  0.4859 -0.7489  0.3821
  680SOL    HW1 2356   0.592   4.538   1.444 -0.1991  0.2202 -2.5126
  680SOL    HW2 2357   0.474   4.633   1.432 -2.3782 -2.1508 -0.8225
  681SOL     OW 2358   0.514   4.372   1.897 -0.3262  0.2916 -0.3110
  681SOL    HW1 2359   0.459   4.320   1.955 -1.1311  1.6655  0.2285
  681SOL    HW2 2360   0.453   4.406   1.831  0.2936  0.0116 -1.0301
  682SOL     OW 2361   1.061   3.353   3.141 -0.0673  0.5947  0.5143
  682SOL    HW1 2362   1.120   3.279   3.157 -0.4933  0.2890  0.6862
  682SOL    HW2 2363   1.023   3.334   3.055  0.4952  1.0712  0.1558
  683SOL     OW 2364   0.547   3.236   4.505  0.1567 -0.1961  0.3618
  683SOL    HW1 2365   0.519   3.182   4.579  0.9176 -0.3647  0.5329
  683SOL    HW2 2366   0.486   3.212   4.435 -1.2836  0.7768  1.2234
  684SOL     OW 2367   2.045   2.533   4.583 -0.5488  0.1892 -0.6878
  684SOL    HW1 2368   2.080   2.486   4.507  0.0590  0.0207 -0.3074
  684SOL    HW2 2369   1.975   2.477   4.615 -0.4017 -0.0396 -0.7580
  685SOL     OW 2370   4.004   3.012   4.708 -0.0221  0.2396 -0.7565
  685SOL    HW1 2371   4.067   3.080   4.734 -0.0837  0.7255 -1.8240
  685SOL    HW2 2372   4.055   2.951   4.655 -0.0794 -0.2940 -0.2096
  686SOL     OW 2373   3.394   0.451   4.617  0.0298  0.6602  0.3917
  686SOL    HW1 2374   3.473   0.476   4.663  0.0649 -1.0140  1.3403
  686SOL    HW2 2375   3.369   0.367   4.656 -0.1700 -0.6894 -2.3361
  687SOL     OW 2376   3.679   3.139   0.824 -0.4419  0.5273 -0.0738
  687SOL    HW1 2377   3.722   3.089   0.893 -0.4623 -0.0180 -0.4501
  687SOL    HW2 2378   3.614   3.192   0.869  0.0673  0.7478  0.4086
  688SOL     OW 2379   2.450   2.678   2.279  0.0714 -0.7573 -0.0260
  688SOL    HW1 2380   2.406   2.594   2.270 -0.2172 -0.5564 -0.5702
  688SOL    HW2 2381   2.534   2.658   2.320 -0.1542 -1.2596  0.1898
  689SOL     OW 2382   4.980   1.379   3.336 -0.1545 -0.5940 -0.1918
  689SOL    HW1 2383   5.024   1.463   3.324 -1.1938 -0.2494 -2.0276
  689SOL    HW2 2384   5.046   1.313   3.314 -0.5305 -0.0810 -3.3066
  690SOL     OW 2385   4.054   1.598   5.155 -0.5867  0.2559 -0.1289
  690SOL    HW1 2386   4.069   1.528   5.219 -2.9060 -1.0243 -0.8819
  690SOL    HW2 2387   4.102   1.569   5.077  0.7996  0.9623  0.4278
  691SOL     OW 2388   2.539   3.896   4.650 -0.5177 -0.4142  0.1919
  691SOL    HW1 2389   2.632   3.916   4.636 -0.4928 -0.7547 -0.1218
  691SOL    HW2 2390   2.539   3.834   4.723 -0.3748 -1.7951 -0.9614
  692SOL     OW 2391   2.417   3.907   1.440 -0.0444  0.2660 -0.3078
  692SOL    HW1 2392   2.418   3.879   1.349  0.1125  0.6297 -0.4193
  692SOL    HW2 2393   2.441   3.999   1.437  0.2405  0.2089  0.1282
  693SOL     OW 2394   3.225   3.905   4.496  0.7262 -0.2154  0.3656
  693SOL    HW1 2395   3.157   3.941   4.440 -0.7101  0.5316  2.4543
  693SOL    HW2 2396   3.297   3.967   4.489  0.5130 -0.0514 -0.5124
  694SOL     OW 2397   1.813   3.091   3.857  0.3896  0.3992  0.0934
  694SOL    HW1 2398   1.883   3.146   3.821  0.5988  0.5526  0.7243
  694SOL    HW2 2399   1.807   3.117   3.949 -0.7269  0.6071 -0.0313
  695SOL     OW 2400   1.192   2.436   5.384  0.3282 -0.1361  0.2576
  695SOL    HW1 2401   1.195   2.476   5.471  0.7899 -2.8371  1.5741
  695SOL    HW2 2402   1.284   2.425   5.360  0.5495 -4.8482  2.2604
  696SOL     OW 2403   1.113   3.978   4.609 -0.4211  0.0124  0.2900
  696SOL    HW1 2404   1.052   3.944   4.544  1.5654 -0.2921 -1.5284
  696SOL    HW2 2405   1.113   3.912   4.679 -0.4094 -1.1676 -0.7963
  697SOL     OW 2406   2.897   2.900   2.983  0.1501 -0.2414 -0.0560
  697SOL    HW1 2407   2.928   2.816   3.016  2.4998  0.2594 -0.7958
  697SOL    HW2 2408   2.976   2.954   2.977 -1.3154  2.1348  0.6512
  698SOL     OW 2409   0.472   1.931   5.221  0.3544 -0.3288 -0.0099
  698SOL    HW1 2410   0.432   1.923   5.308 -1.1204  2.1542 -0.3582
  698SOL    HW2 2411   0.440   1.855   5.173 -1.7746  0.1266  0.5945
  699SOL     OW 2412   2.824   4.927   2.872  0.3007 -0.4515 -0.4113
  699SOL    HW1 2413   2.832   4.945   2.778  0.3926  0.2906 -0.2720
  699SOL    HW2 2414   2.793   5.010   2.909  2.6284  0.0627  0.5490
  700SOL     OW 2415   0.248   4.271   0.704 -0.4636  0.0540 -0.2091
  700SOL    HW1 2416   0.320   4.302   0.648  0.7616 -1.2438  0.5778
  700SOL    HW2 2417   0.289   4.256   0.789 -2.0236  0.7500  0.6968
  701SOL     OW 2418   1.014   1.497   2.395 -0.2508 -0.0959  0.0629
  701SOL    HW1 2419   1.079   1.548   2.347  1.1500 -0.5793  1.3622
  701SOL    HW2 2420   1.056   1.412   2.409 -0.1697  0.3227  2.9178
  702SOL     OW 2421   2.957   1.740   1.497  0.0535 -0.1493  0.4577
  702SOL    HW1 2422   3.030   1.681   1.477 -0.8830 -1.0905 -0.2710
  702SOL    HW2 2423   2.887   1.712   1.439 -0.9803  0.5843  1.3162
  703SOL     OW 2424   1.089   4.533   1.578  0.1891 -0.6025  0.2507
  703SOL    HW1 2425   1.067   4.472   1.648  0.1198  1.3872  2.0939
  703SOL    HW2 2426   1.181   4.516   1.559  0.8357  0.1070  2.3461
  704SOL     OW 2427   5.460   3.240   2.980 -0.0214 -0.4366  0.2962
  704SOL    HW1 2428   5.411   3.261   2.901  0.6027 -0.2335 -0.0455
  704SOL    HW2 2429   5.478   3.146   2.973  1.3073 -0.1489 -0.5553
  705SOL     OW 2430   5.500   0.793   1.499 -0.8188  0.2647  0.0427
  705SOL    HW1 2431   5.557   0.801   1.422 -0.8478 -0.5072 -0.0671
  705SOL    HW2 2432   5.519   0.707   1.535 -0.8544  0.5929  0.8772
  706SOL     OW 2433   2.182   4.508   4.562  0.4175 -0.2420 -0.4293
  706SOL    HW1 2434   2.253   4.462   4.517  0.0073 -1.2424 -0.0766
  706SOL    HW2 2435   2.103   4.481   4.517  0.0847 -0.5877  0.3358
  707SOL     OW 2436   5.171   2.637   1.112  0.0030  0.0167  0.1824
  707SOL    HW1 2437   5.264   2.619   1.122 -0.1817 -0.2714  1.5782
  707SOL    HW2 2438   5.152   2.702   1.180 -0.9525 -0.4472  0.3770
  708SOL     OW 2439   0.271   0.098   4.307  0.3164  0.4221  0.5052
  708SOL    HW1 2440   0.189   0.083   4.353  0.1264 -0.0363  0.0242
  708SOL    HW2 2441   0.269   0.192   4.286  0.2818  0.5761  1.1831
  709SOL     OW 2442   0.199   5.535   2.957 -0.1468  0.4527  0.1378
  709SOL    HW1 2443   0.290   5.560   2.941  0.0594 -0.2171  0.2041
  709SOL    HW2 2444   0.205   5.449   2.999 -0.8255  0.1409 -0.3769
  710SOL     OW 2445   3.031   0.966   3.139  0.3562 -0.1233 -0.1728
  710SOL    HW1 2446   2.957   0.906   3.135  1.3495 -1.3197 -2.4687
  710SOL    HW2 2447   3.089   0.928   3.205 -0.8252  0.5824  1.3163
  711SOL     OW 2448   2.083   4.129   4.647  0.0687  0.4887  0.8202
  711SOL    HW1 2449   2.075   4.035   4.629 -0.2057  0.8246 -1.0488
  711SOL    HW2 2450   2.159   4.136   4.705  0.8024 -0.8039  0.0790
  712SOL     OW 2451   0.820   0.882   2.257 -0.0467  0.2636  0.4351
  712SOL    HW1 2452   0.756   0.946   2.226  0.3919 -0.0849 -1.2972
  712SOL    HW2 2453   0.767   0.811   2.294 -0.5629  1.1236  1.3738
  713SOL     OW 2454   0.998   4.204   3.682  0.3207  0.6767  0.2333
  713SOL    HW1 2455   0.951   4.285   3.701 -0.7209 -0.2959  2.0505
  713SOL    HW2 2456   0.931   4.136   3.684  1.0727 -0.2031 -1.8998
  714SOL     OW 2457   0.312   4.848   2.071  0.1328 -0.3594  0.0453
  714SOL    HW1 2458   0.329   4.882   2.159  0.4902  0.4488 -0.3234
  714SOL    HW2 2459   0.359   4.908   2.013  0.6432 -1.3920 -0.6419
  715SOL     OW 2460   3.191   3.085   3.675 -0.2283  0.3625  0.5600
  715SOL    HW1 2461   3.223   3.078   3.766  0.9923  1.1577  0.2254
  715SOL    HW2 2462   3.110   3.035   3.674  0.1746 -0.3766  1.8881
  716SOL     OW 2463   3.593   4.907   0.619 -0.2001 -0.3842  0.2330
  716SOL    HW1 2464   3.688   4.901   0.606 -0.1651  1.7739 -0.9328
  716SOL    HW2 2465   3.584   4.954   0.702 -0.2344  0.1443 -0.0687
  717SOL     OW 2466   3.191   1.746   3.900 -0.0818  0.1769 -0.4468
  717SOL    HW1 2467   3.120   1.708   3.951  1.7166 -1.3958  1.0171
  717SOL    HW2 2468   3.175   1.716   3.810 -2.2406  1.4184 -0.5361
  718SOL     OW 2469   4.361   2.473   0.903 -0.0378  0.2363  0.2209
  718SOL    HW1 2470   4.286   2.442   0.853 -0.9821  1.8383  0.5588
  718SOL    HW2 2471   4.367   2.412   0.977 -0.4286 -0.4370 -0.2913
  719SOL     OW 2472   3.205   0.882   1.573  0.3432  0.1710  0.7310
  719SOL    HW1 2473   3.256   0.894   1.653  0.2366 -0.8174  0.9658
  719SOL    HW2 2474   3.150   0.960   1.567 -0.1586 -0.0652  2.0156
  720SOL     OW 2475   4.551   0.533   4.902 -0.5040  0.0089  0.6324
  720SOL    HW1 2476   4.604   0.524   4.982 -0.3864  0.1428  0.5687
  720SOL    HW2 2477   4.469   0.572   4.932 -0.6984 -0.5080  0.7833
  721SOL     OW 2478   1.069   2.170   3.057 -0.6871 -0.2940 -0.3953
  721SOL    HW1 2479   0.999   2.179   2.993  0.1538 -0.3245 -1.3536
  721SOL    HW2 2480   1.102   2.260   3.069  1.4482 -0.6581 -2.7158
  722SOL     OW 2481   3.929   3.989   3.667  0.3712 -0.2173 -0.1938
  722SOL    HW1 2482   3.917   4.002   3.761 -1.5145 -1.6234 -0.1710
  722SOL    HW2 2483   3.841   3.973   3.633  1.2128 -1.8742 -1.8374
  723SOL     OW 2484   1.933   0.172   4.724  0.1971 -0.1685 -0.1944
  723SOL    HW1 2485   1.941   0.259   4.684  0.8193 -0.6050 -1.0564
  723SOL    HW2 2486   1.994   0.173   4.797  2.4137 -0.8005 -1.9270
  724SOL     OW 2487   0.792   4.867   4.250 -0.0687 -0.1343  0.2129
  724SOL    HW1 2488   0.756   4.825   4.171  0.8479  1.2880 -1.0281
  724SOL    HW2 2489   0.791   4.798   4.316  2.1347 -2.4225 -1.9131
  725SOL     OW 2490   5.051   3.864   3.032  0.1078 -0.1065 -0.3297
  725SOL    HW1 2491   5.134   3.839   3.073  1.4977  0.5032 -2.6202
  725SOL    HW2 2492   4.987   3.803   3.069  1.9515 -1.9484 -0.0136
  726SOL     OW 2493   1.237   5.441   3.842 -0.2871 -0.4056  0.3342
  726SOL    HW1 2494   1.252   5.484   3.926  1.0003  0.9905 -0.5575
  726SOL    HW2 2495   1.197   5.509   3.787 -1.4193 -1.3916 -0.0990
  727SOL     OW 2496   3.637   2.846   4.816 -0.1032  0.1482  0.1644
  727SOL    HW1 2497   3.704   2.818   4.879 -0.1104 -1.3873 -0.4738
  727SOL    HW2 2498   3.554   2.831   4.862 -0.1683 -2.0511 -0.5259
  728SOL     OW 2499   0.365   4.522   4.587 -0.0130 -0.0922  0.0425
  728SOL    HW1 2500   0.341   4.436   4.622 -0.0883 -0.4032 -0.7537
  728SOL    HW2 2501   0.330   4.584   4.651  0.6045 -0.6639  0.9587
  729SOL     OW 2502   2.359   5.121   4.395 -0.0873 -0.4116 -0.4235
  729SOL    HW1 2503   2.374   5.045   4.451  0.1140 -1.3455 -1.6967
  729SOL    HW2 2504   2.447   5.158   4.380 -0.0785 -0.4998 -0.5878
  730SOL     OW 2505   1.745   5.035   4.555 -0.2905  0.5278  0.0057
  730SOL    HW1 2506   1.690   4.977   4.608 -0.7692  0.8125 -0.1704
  730SOL    HW2 2507   1.707   5.031   4.467  1.3782 -1.0911 -0.7016
  731SOL     OW 2508   0.771   1.601   1.057 -0.1748  0.0289  0.2617
  731SOL    HW1 2509   0.795   1.689   1.086  0.8632 -0.4299  0.8491
  731SOL    HW2 2510   0.692   1.581   1.106 -0.3707  0.5953  0.1894
  732SOL     OW 2511   1.112   1.155   3.197  0.3422 -0.0164 -0.2578
  732SOL    HW1 2512   1.072   1.096   3.133  1.2469 -2.3384  1.2305
  732SOL    HW2 2513   1.165   1.214   3.144 -1.0501 -0.0858 -1.8368
  733SOL     OW 2514   2.615   1.197   5.278  0.2730 -0.2490 -0.2607
  733SOL    HW1 2515   2.550   1.184   5.347  0.9693 -1.0585  0.2568
  733SOL    HW2 2516   2.568   1.244   5.209  0.1678  2.8251  1.7085
  734SOL     OW 2517   3.099   4.244   5.372 -0.5853 -0.0081 -0.0905
  734SOL    HW1 2518   3.128   4.333   5.391 -0.1359  0.1318 -1.3566
  734SOL    HW2 2519   3.120   4.194   5.451 -0.1690  0.8460  0.3471
  735SOL     OW 2520   2.189   1.248   0.043 -0.5307  0.8555 -0.0303
  735SOL    HW1 2521   2.112   1.200   0.073  0.0595  0.0183  0.2004
  735SOL    HW2 2522   2.248   1.249   0.119  1.2491 -1.8305 -1.2058
  736SOL     OW 2523   2.006   1.354   3.087 -0.8018 -0.5369 -0.1646
  736SOL    HW1 2524   2.085   1.345   3.034 -0.6680  2.3921 -0.6050
  736SOL    HW2 2525   1.953   1.278   3.064  0.8091 -1.2574 -1.7471
  737SOL     OW 2526   1.655   1.559   4.287 -0.0889 -0.4905  0.0039
  737SOL    HW1 2527   1.693   1.647   4.290  0.7161 -0.8618  1.6063
  737SOL    HW2 2528   1.626   1.542   4.376  0.5139 -2.1683 -0.0809
  738SOL     OW 2529   2.592   1.784   5.495 -0.2627 -0.0152 -0.4161
  738SOL    HW1 2530   2.525   1.819   5.554 -1.0060  1.3104 -1.9975
  738SOL    HW2 2531   2.574   1.690   5.493 -0.3627 -0.0715  1.2475
  739SOL     OW 2532   2.537   4.883   0.697  0.1050  0.0631  0.5806
  739SOL    HW1 2533   2.476   4.871   0.624  0.8937 -1.8717  0.1693
  739SOL    HW2 2534   2.600   4.948   0.664  0.5995 -0.9695 -0.6205
  740SOL     OW 2535   2.988   4.725   0.674  0.2080 -0.3763  0.1070
  740SOL    HW1 2536   3.004   4.669   0.598 -0.4304 -0.4327  0.0110
  740SOL    HW2 2537   2.921   4.678   0.724 -1.5489  1.0442 -0.7942
  741SOL     OW 2538   3.293   2.218   0.341 -0.0454  0.1691 -0.6334
  741SOL    HW1 2539   3.385   2.196   0.348  0.3906  1.0867 -2.5371
  741SOL    HW2 2540   3.281   2.242   0.249 -1.8970  1.2832 -0.1721
  742SOL     OW 2541   4.064   0.876   2.463  0.1990  0.1844 -0.2297
  742SOL    HW1 2542   4.077   0.903   2.372  0.9505 -1.7133 -0.7324
  742SOL    HW2 2543   3.974   0.901   2.483 -0.7550 -1.3286 -2.2652
  743SOL     OW 2544   0.130   4.195   2.293  0.1087 -0.1315  0.1141
  743SOL    HW1 2545   0.075   4.208   2.370  0.2517  0.1375  0.1707
  743SOL    HW2 2546   0.069   4.193   2.219 -0.0591 -0.6738  0.2600
  744SOL     OW 2547   3.572   0.869   0.958  0.0001 -0.4724 -0.5045
  744SOL    HW1 2548   3.660   0.831   0.958  0.6705  0.9634 -1.9005
  744SOL    HW2 2549   3.586   0.962   0.944 -1.6663  0.1050  1.2681
  745SOL     OW 2550   1.987   4.062   0.830 -0.0360 -0.2326  0.3488
  745SOL    HW1 2551   1.927   4.091   0.899 -0.5624  1.1910 -0.6622
  745SOL    HW2 2552   1.932   4.057   0.751  0.8785 -0.2735 -0.3004
  746SOL     OW 2553   1.983   2.090   4.198  0.3119 -0.0856 -0.0023
  746SOL    HW1 2554   1.929   2.014   4.219  1.0053 -0.4377  0.5675
  746SOL    HW2 2555   2.071   2.067   4.229  0.3520  1.3148  1.0589
  747SOL     OW 2556   3.435   2.766   3.068  0.6342  0.9856  0.5281
  747SOL    HW1 2557   3.446   2.695   3.005 -0.8909  0.2622  1.0035
  747SOL    HW2 2558   3.449   2.846   3.018 -0.7238  0.4441 -0.8077
  748SOL     OW 2559   4.717   2.155   1.760 -0.1192  0.0311 -0.0036
  748SOL    HW1 2560   4.772   2.210   1.816  0.4892 -0.9686  0.4062
  748SOL    HW2 2561   4.714   2.071   1.805 -1.4339 -0.1459 -0.3773
  749SOL     OW 2562   5.061   0.762   3.959  0.0348 -0.0822 -0.1294
  749SOL    HW1 2563   5.077   0.679   4.004 -2.4459 -0.7053 -0.2631
  749SOL    HW2 2564   5.107   0.827   4.012  1.7840 -1.4638  0.1453
  750SOL     OW 2565   0.574   1.932   2.502 -0.5062 -0.2085 -0.8385
  750SOL    HW1 2566   0.632   1.969   2.435  0.9705  3.0790  1.9409
  750SOL    HW2 2567   0.513   2.002   2.522  0.3090 -0.2676  2.4427
  751SOL     OW 2568   2.561   2.876   2.693 -0.6542 -0.0037 -1.0952
  751SOL    HW1 2569   2.493   2.938   2.720  0.8697  1.3073 -0.0369
  751SOL    HW2 2570   2.568   2.815   2.766  0.9734  1.3825 -0.0052
  752SOL     OW 2571   2.299   0.717   2.963 -0.0847  0.7207 -0.2094
  752SOL    HW1 2572   2.271   0.652   2.899 -1.0781  0.6947  0.2455
  752SOL    HW2 2573   2.274   0.681   3.048 -0.3271  1.5340  0.0727
  753SOL     OW 2574   2.489   1.218   3.524 -0.2195 -0.3450  0.0132
  753SOL    HW1 2575   2.538   1.143   3.559 -2.8760 -1.9474  0.6385
  753SOL    HW2 2576   2.480   1.199   3.431  1.1242  0.4624 -0.3008
  754SOL     OW 2577   0.023   2.332   0.881  0.2080  0.3873 -0.3790
  754SOL    HW1 2578   0.101   2.276   0.882 -0.5294 -0.6678  0.9082
  754SOL    HW2 2579  -0.044   2.280   0.926 -1.5127  0.8948 -2.2321
  755SOL     OW 2580   4.239   5.041   1.749 -0.0048 -0.2558 -0.1237
  755SOL    HW1 2581   4.239   4.958   1.703  2.2408 -1.4791  1.8498
  755SOL    HW2 2582   4.323   5.044   1.794 -1.2332  1.6881  2.3168
  756SOL     OW 2583   4.414   4.149   0.144 -0.0360  0.2829 -0.1243
  756SOL    HW1 2584   4.349   4.121   0.080  0.3744 -0.6221 -0.1568
  756SOL    HW2 2585   4.493   4.165   0.093  0.2950 -0.4520  0.1548
  757SOL     OW 2586   5.524   2.494   3.320 -0.0600  0.5838  0.2163
  757SOL    HW1 2587   5.618   2.498   3.301  0.0164 -0.3363  0.3783
  757SOL    HW2 2588   5.483   2.488   3.233  0.2566 -2.9141  0.2035
  758SOL     OW 2589   4.518   5.533   0.521  0.3438 -0.0533 -0.7357
  758SOL    HW1 2590   4.456   5.533   0.448 -0.4638 -1.4042 -0.0775
  758SOL    HW2 2591   4.521   5.442   0.550 -0.0287  0.5859  1.4859
  759SOL     OW 2592   0.163   2.978   3.941 -0.4024 -0.2525  0.0776
  759SOL    HW1 2593   0.103   2.974   3.866 -0.1501 -0.4445 -0.1138
  759SOL    HW2 2594   0.246   2.945   3.907 -0.2336 -0.1499  0.3903
  760SOL     OW 2595   1.377   2.253   3.578 -0.2579 -0.6537 -0.3325
  760SOL    HW1 2596   1.433   2.314   3.627 -0.5972  1.0465 -1.9579
  760SOL    HW2 2597   1.419   2.168   3.589  0.5927 -0.0569  1.4869
  761SOL     OW 2598   1.791   2.764   4.255 -0.4655  0.0999 -0.2456
  761SOL    HW1 2599   1.720   2.818   4.222 -1.4078 -0.8211  0.2150
  761SOL    HW2 2600   1.787   2.684   4.202 -2.1307 -1.4946  2.0987
  762SOL     OW 2601   1.880   2.631   1.425 -0.2773  0.3226 -0.4894
  762SOL    HW1 2602   1.934   2.710   1.431 -0.4545  0.4556 -0.6089
  762SOL    HW2 2603   1.790   2.664   1.425 -0.4248  0.0154  1.3096
  763SOL     OW 2604   0.364   3.615   3.607  0.2273 -0.7258  0.3314
  763SOL    HW1 2605   0.373   3.676   3.681  0.6229 -0.3562 -0.0130
  763SOL    HW2 2606   0.454   3.603   3.576  0.2233 -1.9597  0.7639
  764SOL     OW 2607   4.047   2.425   1.228 -0.1103 -1.1287  0.0492
  764SOL    HW1 2608   3.959   2.462   1.217 -0.3370 -1.4448  0.7168
  764SOL    HW2 2609   4.099   2.465   1.159 -0.0803  1.2940  1.3504
  765SOL     OW 2610   2.397   0.903   3.659  0.4890  0.2187  0.1506
  765SOL    HW1 2611   2.452   0.896   3.581 -0.9418  0.8186 -0.9896
  765SOL    HW2 2612   2.396   0.815   3.696  0.1054 -0.4392 -1.3319
  766SOL     OW 2613   0.613   1.174   1.079 -0.2773  0.2642  0.2689
  766SOL    HW1 2614   0.662   1.151   1.159  1.4607 -0.2777 -0.9043
  766SOL    HW2 2615   0.644   1.261   1.056 -0.7257  0.3912  0.1427
  767SOL     OW 2616   4.544   5.469   1.465  0.5725 -0.6406  0.6403
  767SOL    HW1 2617   4.578   5.381   1.481 -0.7758 -1.2576  0.1937
  767SOL    HW2 2618   4.533   5.507   1.552 -0.1237 -1.4224  0.9065
  768SOL     OW 2619   4.979   1.956   3.570  0.0731 -0.2645  0.0687
  768SOL    HW1 2620   4.905   1.929   3.515 -2.2073  1.8568  1.8819
  768SOL    HW2 2621   4.973   1.900   3.647 -1.1942  1.4653  1.2881
  769SOL     OW 2622   2.040   3.578   3.816 -0.0721  0.1311  0.1015
  769SOL    HW1 2623   2.044   3.489   3.851  1.9911 -0.8039 -2.1582
  769SOL    HW2 2624   2.100   3.628   3.871  1.6361 -0.8422 -0.7735
  770SOL     OW 2625   1.990   4.302   3.096 -0.0930 -0.1773 -0.3673
  770SOL    HW1 2626   2.059   4.308   3.161  0.5373 -2.4766 -0.7282
  770SOL    HW2 2627   2.035   4.312   3.012 -0.8386  2.3511 -0.5545
  771SOL     OW 2628   4.285   3.745   4.978  0.7041 -0.2360  0.0190
  771SOL    HW1 2629   4.342   3.792   4.918  1.9378 -0.6452  0.8322
  771SOL    HW2 2630   4.248   3.813   5.035 -0.4959  0.1553 -1.1765
  772SOL     OW 2631   3.093   4.320   0.539 -0.0128  0.1730 -0.5107
  772SOL    HW1 2632   2.998   4.325   0.528 -0.0826  0.2085  0.0736
  772SOL    HW2 2633   3.129   4.355   0.457 -0.5030 -0.6435 -1.0851
  773SOL     OW 2634   0.063   0.422   2.557  0.7876 -0.3162  0.5648
  773SOL    HW1 2635   0.061   0.517   2.568 -0.6361 -0.3370  0.7504
  773SOL    HW2 2636   0.065   0.409   2.462 -0.5647 -0.0788  0.4849
  774SOL     OW 2637   4.440   1.681   2.425  0.3338  0.5116  0.0717
  774SOL    HW1 2638   4.528   1.705   2.398  0.3160  0.7198  0.1941
  774SOL    HW2 2639   4.431   1.717   2.514 -0.5124  2.1071 -0.6123
  775SOL     OW 2640   5.272   3.137   4.946  0.0995 -0.2739 -0.8074
  775SOL    HW1 2641   5.271   3.150   4.851 -1.0751 -0.9590 -0.8966
  775SOL    HW2 2642   5.188   3.097   4.966  0.1304  0.3262  0.6018
  776SOL     OW 2643   3.483   1.982   3.517 -0.4943 -0.0511  0.5680
  776SOL    HW1 2644   3.422   1.913   3.491  0.7538 -1.1736  0.4560
  776SOL    HW2 2645   3.559   1.969   3.460 -1.1303  2.9803 -1.1787
  777SOL     OW 2646   2.028   1.294   2.420  0.3653  0.4873  0.6817
  777SOL    HW1 2647   2.109   1.321   2.377  0.7628  0.0897  1.1592
  777SOL    HW2 2648   1.958   1.328   2.364  0.8442  1.6853  0.7695
  778SOL     OW 2649   3.264   0.873   4.708 -0.5107 -0.3903 -0.2445
  778SOL    HW1 2650   3.264   0.809   4.779 -3.4712  0.1156  0.3461
  778SOL    HW2 2651   3.274   0.958   4.752 -0.1327 -0.2123 -0.6665
  779SOL     OW 2652   3.680   4.834   3.765  0.2150  0.2661 -0.0797
  779SOL    HW1 2653   3.685   4.824   3.861  1.7686 -2.0507 -0.3167
  779SOL    HW2 2654   3.637   4.754   3.735 -1.2378  1.4597 -1.3030
  780SOL     OW 2655   3.625   2.579   0.317 -0.3933 -0.2725 -0.0849
  780SOL    HW1 2656   3.568   2.557   0.390 -1.2984  0.7388 -0.4662
  780SOL    HW2 2657   3.581   2.651   0.272  0.9631  0.2503 -0.6506
  781SOL     OW 2658   4.890   4.597   3.157 -0.0656 -0.3526  0.3509
  781SOL    HW1 2659   4.864   4.672   3.211 -1.0194  0.0322 -0.5975
  781SOL    HW2 2660   4.966   4.628   3.108 -0.2882 -0.0936  0.1655
  782SOL     OW 2661   5.422   1.050   2.174 -0.0071  0.5277 -0.5412
  782SOL    HW1 2662   5.399   1.142   2.180  0.1063  0.6577 -1.7191
  782SOL    HW2 2663   5.339   1.003   2.178 -0.2205  0.7949 -1.5414
  783SOL     OW 2664   1.786   0.807   0.351 -0.3226 -0.5124 -0.0391
  783SOL    HW1 2665   1.712   0.761   0.390 -1.5678 -0.9903 -2.7459
  783SOL    HW2 2666   1.753   0.895   0.334  0.1944 -0.3203 -0.0612
  784SOL     OW 2667   5.168   1.821   2.592  0.8262 -0.6142 -0.3746
  784SOL    HW1 2668   5.177   1.727   2.606 -0.8736 -0.7420  0.0334
  784SOL    HW2 2669   5.234   1.841   2.526  1.3314 -2.0516 -0.3530
  785SOL     OW 2670   3.454   1.379   4.248  0.0121 -0.3262 -0.0107
  785SOL    HW1 2671   3.414   1.464   4.227  0.0605 -0.3674 -0.2712
  785SOL    HW2 2672   3.543   1.402   4.276  0.3527 -0.3623 -1.0217
  786SOL     OW 2673   3.778   4.624   1.984  0.1525 -0.1632  0.1625
  786SOL    HW1 2674   3.775   4.659   2.073 -0.2002  0.5009 -0.1012
  786SOL    HW2 2675   3.859   4.573   1.980  0.0136 -0.4563  0.9530
  787SOL     OW 2676   1.462   5.159   5.342 -0.2932 -0.9262  0.1498
  787SOL    HW1 2677   1.538   5.215   5.323 -1.6153  0.2560 -2.0111
  787SOL    HW2 2678   1.386   5.213   5.319 -1.6928 -3.0796 -0.5635
  788SOL     OW 2679   3.921   2.576   0.002  0.1813  0.0481 -0.0587
  788SOL    HW1 2680   3.874   2.657  -0.016 -0.0198  0.0841  0.6028
  788SOL    HW2 2681   3.945   2.542  -0.084  0.1490  0.7394 -0.3413
  789SOL     OW 2682   1.383   1.971   1.067 -0.4918 -0.2288 -0.2240
  789SOL    HW1 2683   1.438   1.990   0.990  1.5808  0.0109  1.2281
  789SOL    HW2 2684   1.363   2.057   1.103 -0.4138 -0.3797  0.1790
  790SOL     OW 2685   1.660   3.317   4.707 -0.2245  0.2952  0.6298
  790SOL    HW1 2686   1.670   3.344   4.616 -3.2036  2.0675  0.7043
  790SOL    HW2 2687   1.608   3.387   4.747 -2.3330 -2.2341  2.6915
  791SOL     OW 2688   3.201   2.293   4.042 -0.1347 -0.0889 -0.1051
  791SOL    HW1 2689   3.263   2.351   3.997 -0.7123  0.3608 -0.3349
  791SOL    HW2 2690   3.128   2.350   4.065 -0.5896 -0.6745 -0.0841
  792SOL     OW 2691   3.515   0.704   0.326 -0.5686 -0.8846 -0.5398
  792SOL    HW1 2692   3.499   0.797   0.308 -0.4223 -0.4809  1.2275
  792SOL    HW2 2693   3.434   0.661   0.301 -1.0161 -0.1270 -0.4310
  793SOL     OW 2694   5.116   3.374   0.533 -0.3408  0.1024  0.1142
  793SOL    HW1 2695   5.131   3.352   0.441  1.3634 -1.3514  0.6639
  793SOL    HW2 2696   5.037   3.326   0.556 -0.4638  0.0206 -0.4688
  794SOL     OW 2697   2.851   2.095   1.951  0.1757  0.1652 -0.4844
  794SOL    HW1 2698   2.782   2.036   1.920  0.3845 -0.6420  0.5085
  794SOL    HW2 2699   2.843   2.173   1.896  0.4534 -1.1209 -2.4542
  795SOL     OW 2700   0.635   3.428   2.875  0.0403  0.0934  0.7131
  795SOL    HW1 2701   0.581   3.391   2.805  0.4108  0.6107  0.1483
  795SOL    HW2 2702   0.582   3.499   2.912  0.9784  1.7663 -0.9917
  796SOL     OW 2703   5.220   3.180   2.495 -0.3237  0.0312 -0.2033
  796SOL    HW1 2704   5.175   3.254   2.453  0.3869 -0.9403 -2.9362
  796SOL    HW2 2705   5.149   3.121   2.521 -0.8461  1.1722  1.0401
  797SOL     OW 2706   4.518   2.458   0.643  0.0457 -0.3778  0.1340
  797SOL    HW1 2707   4.507   2.381   0.699 -1.4652 -0.2978 -0.0195
  797SOL    HW2 2708   4.473   2.528   0.690  2.0118  0.6433  0.6333
  798SOL     OW 2709   2.243   0.287   5.288 -0.3314  0.3374  0.2808
  798SOL    HW1 2710   2.154   0.297   5.253 -0.4265  2.1039  0.9105
  798SOL    HW2 2711   2.231   0.234   5.367 -0.8070  0.3990  0.2560
  799SOL     OW 2712   3.296   2.793   1.565 -0.6943 -0.0097 -0.3062
  799SOL    HW1 2713   3.275   2.877   1.526 -2.0032 -1.3888 -2.8060
  799SOL    HW2 2714   3.213   2.747   1.572  0.1696 -1.7135 -0.5567
  800SOL     OW 2715   0.106   2.833   1.869 -0.2356 -0.1761  0.1476
  800SOL    HW1 2716   0.052   2.754   1.859 -0.8144  0.1678  0.5123
  800SOL    HW2 2717   0.076   2.891   1.798  1.6639 -1.0818 -1.4909
  801SOL     OW 2718   0.963   2.306   1.157  0.5200  0.3188  0.6426
  801SOL    HW1 2719   1.017   2.342   1.227 -1.4104  2.8678  1.0119
  801SOL    HW2 2720   0.895   2.255   1.202  0.7400 -0.1753  0.4235
  802SOL     OW 2721   3.190   2.510   5.196  0.0625 -0.7071 -0.4633
  802SOL    HW1 2722   3.144   2.585   5.160  0.0431 -1.8282 -3.0008
  802SOL    HW2 2723   3.147   2.492   5.280 -0.0709  1.8878  0.0860
  803SOL     OW 2724   5.205   0.613   5.270 -0.6776 -0.4872 -0.3800
  803SOL    HW1 2725   5.149   0.611   5.347  0.2068  1.0990  0.3561
  803SOL    HW2 2726   5.184   0.532   5.222 -1.0022 -1.6914  1.6880
  804SOL     OW 2727   3.687   4.969   1.060 -0.1356  0.1409 -0.2282
  804SOL    HW1 2728   3.616   4.946   0.999 -0.3627 -0.7811  0.3695
  804SOL    HW2 2729   3.670   5.061   1.082 -2.0597 -0.4718  1.0693
  805SOL     OW 2730   3.261   5.126   3.980  0.9950 -0.2945  0.0978
  805SOL    HW1 2731   3.357   5.124   3.985  1.0433  0.7596 -0.1156
  805SOL    HW2 2732   3.232   5.067   4.049  1.8001 -0.9651 -0.1217
  806SOL     OW 2733   5.416   1.791   3.938 -0.0268 -0.1048 -0.6028
  806SOL    HW1 2734   5.432   1.848   3.864  0.4032  0.9196  0.2507
  806SOL    HW2 2735   5.465   1.711   3.919  1.0801  0.6190 -0.8607
  807SOL     OW 2736   1.870   1.877   0.635 -0.4285 -0.5308 -0.1586
  807SOL    HW1 2737   1.847   1.955   0.585 -1.0393 -1.3945 -1.2735
  807SOL    HW2 2738   1.906   1.911   0.717  0.5729  0.9258 -1.1458
  808SOL     OW 2739   2.943   0.409   4.406 -0.0032 -0.1195 -0.0553
  808SOL    HW1 2740   2.954   0.504   4.399  0.9334 -0.2075 -0.0011
  808SOL    HW2 2741   2.875   0.388   4.343 -3.2918  1.0647  2.7459
  809SOL     OW 2742   4.827   4.587   5.159  0.1931  0.0391  0.1018
  809SOL    HW1 2743   4.741   4.573   5.119 -0.5786  0.1354  1.6336
  809SOL    HW2 2744   4.874   4.505   5.144 -0.4757 -0.3265 -0.0342
  810SOL     OW 2745   1.937   4.092   4.106  0.3125  0.0645 -0.0819
  810SOL    HW1 2746   1.892   4.100   4.190  0.7499 -1.7261  0.3416
  810SOL    HW2 2747   1.959   4.183   4.082 -2.4680  0.9158  0.2330
  811SOL     OW 2748   0.327   1.830   5.447 -0.3678  0.6508  0.1581
  811SOL    HW1 2749   0.404   1.778   5.471  0.8165  1.5404 -1.4937
  811SOL    HW2 2750   0.252   1.776   5.473  0.7692  0.0005  2.3427
  812SOL     OW 2751   4.252   1.525   4.988  0.0934  0.1577 -0.6310
  812SOL    HW1 2752   4.269   1.614   4.955 -2.8174  1.3250  0.6714
  812SOL    HW2 2753   4.313   1.514   5.060  1.2884  0.5966 -1.5445
  813SOL     OW 2754   1.107   0.648   3.337  0.1509  0.4208 -0.0724
  813SOL    HW1 2755   1.019   0.672   3.364  0.3103 -0.6130  1.4982
  813SOL    HW2 2756   1.154   0.731   3.330 -0.7322  0.9222 -0.2128
  814SOL     OW 2757   4.779   2.388   0.800 -0.4036 -0.1492 -0.1496
  814SOL    HW1 2758   4.688   2.359   0.804 -0.7659  1.0421  1.4452
  814SOL    HW2 2759   4.790   2.442   0.879  1.5076  0.2285 -0.6313
  815SOL     OW 2760   4.974   1.252   1.798 -0.2031  0.1154  0.0015
  815SOL    HW1 2761   4.921   1.176   1.775  1.6802 -1.0968 -0.5619
  815SOL    HW2 2762   5.014   1.230   1.881  1.0758  0.0634 -0.6001
  816SOL     OW 2763   1.777   0.149   1.677 -0.5246 -0.0768 -0.1478
  816SOL    HW1 2764   1.743   0.222   1.626  0.6088  1.2315  0.8944
  816SOL    HW2 2765   1.862   0.178   1.707 -0.3204 -1.5870  0.8588
  817SOL     OW 2766   2.250   3.607   4.429  0.3650  0.0970  0.3137
  817SOL    HW1 2767   2.267   3.698   4.450 -0.3958  0.1884  0.5836
  817SOL    HW2 2768   2.328   3.560   4.458  0.9002  0.7033 -0.1441
  818SOL     OW 2769   1.356   2.105   2.286  0.2347 -0.3727  0.1777
  818SOL    HW1 2770   1.297   2.089   2.212 -0.0680 -4.8913  1.1079
  818SOL    HW2 2771   1.303   2.152   2.350 -0.4890  0.7346 -1.1792
  819SOL     OW 2772   3.518   1.347   2.780 -0.4232 -0.4638  0.3656
  819SOL    HW1 2773   3.478   1.431   2.799  0.7086  0.0824  0.3584
  819SOL    HW2 2774   3.485   1.288   2.849 -1.6435 -0.1798  0.0591
  820SOL     OW 2775   0.967   2.943   1.955  0.2766 -0.0085 -0.1897
  820SOL    HW1 2776   0.940   2.853   1.935  0.9230  0.1021 -1.6242
  820SOL    HW2 2777   1.060   2.937   1.973  0.4532  0.4645 -0.9243
  821SOL     OW 2778   0.967   3.618   3.539  0.3199  0.2502  0.2284
  821SOL    HW1 2779   1.061   3.608   3.523 -0.0002 -1.4381 -0.8583
  821SOL    HW2 2780   0.939   3.684   3.476  0.7742  0.7510  0.5469
  822SOL     OW 2781   4.460   1.571   0.932  0.0447 -0.2536 -0.1233
  822SOL    HW1 2782   4.552   1.590   0.953 -0.6320  1.4683  1.5455
  822SOL    HW2 2783   4.424   1.534   1.012 -0.9763  0.0240 -0.4383
  823SOL     OW 2784   0.807   2.243   5.133 -0.1880  0.0778 -0.0669
  823SOL    HW1 2785   0.845   2.320   5.175 -0.2927  0.7908 -1.2107
  823SOL    HW2 2786   0.855   2.235   5.051 -0.3564 -0.9332 -0.0751
  824SOL     OW 2787   4.996   4.253   1.426 -0.1336 -0.4062  0.1961
  824SOL    HW1 2788   4.952   4.243   1.510 -0.4391 -0.7420 -0.0005
  824SOL    HW2 2789   5.049   4.174   1.417  0.5094 -0.0090  0.4288
  825SOL     OW 2790   0.229   2.354   4.343  0.0675  0.0893 -0.2341
  825SOL    HW1 2791   0.196   2.442   4.325  1.6467  1.0012  1.0664
  825SOL    HW2 2792   0.188   2.329   4.426  0.3082 -0.0218 -0.1464
  826SOL     OW 2793   1.534   4.864   1.156  0.2591  0.5856  0.1207
  826SOL    HW1 2794   1.496   4.825   1.235  1.7758 -1.6063 -0.1388
  826SOL    HW2 2795   1.626   4.837   1.158 -0.1056 -1.6994 -3.5142
  827SOL     OW 2796   3.640   2.667   1.453  0.1271  0.2310 -0.5889
  827SOL    HW1 2797   3.550   2.696   1.466 -0.2271 -0.9698 -0.2555
  827SOL    HW2 2798   3.684   2.691   1.535 -0.0531  0.1946 -0.4805
  828SOL     OW 2799   2.849   2.159   1.545 -0.0000  0.0884 -0.4744
  828SOL    HW1 2800   2.908   2.174   1.471 -0.3269 -1.8485 -1.1758
  828SOL    HW2 2801   2.762   2.155   1.505 -0.7448  3.1821  0.5721
  829SOL     OW 2802   1.642   0.361   4.064  0.1278 -0.2552 -0.0299
  829SOL    HW1 2803   1.684   0.279   4.088  1.2178  0.7363  1.6746
  829SOL    HW2 2804   1.668   0.423   4.133 -1.2717  1.3296 -0.8350
  830SOL     OW 2805   5.374   1.829   2.068  0.0660  0.3510  0.7043
  830SOL    HW1 2806   5.338   1.876   1.993  0.6832  1.0208  0.8118
  830SOL    HW2 2807   5.384   1.739   2.038 -2.6968 -0.1397  1.0088
  831SOL     OW 2808   2.106   5.189   3.686  0.2186 -0.2805 -0.1554
  831SOL    HW1 2809   2.167   5.184   3.613  0.6326  0.6481  0.1142
  831SOL    HW2 2810   2.154   5.238   3.754 -0.8032  0.4204  0.0758
  832SOL     OW 2811   0.656   5.533   0.447 -0.2664 -0.2856 -0.3148
  832SOL    HW1 2812   0.561   5.534   0.445 -0.2568  0.3081 -1.1105
  832SOL    HW2 2813   0.681   5.626   0.451  0.2788 -0.3430 -1.8721
  833SOL     OW 2814   3.731   0.908   3.332 -0.0606 -0.0778  1.0889
  833SOL    HW1 2815   3.730   0.813   3.325  0.1889 -0.0244  0.0971
  833SOL    HW2 2816   3.824   0.932   3.325 -0.1552  0.2577  0.9553
  834SOL     OW 2817   4.509   5.019   2.848  0.6482 -0.0707 -0.5853
  834SOL    HW1 2818   4.604   5.023   2.864  0.4954  0.1158  0.3314
  834SOL    HW2 2819   4.492   5.091   2.787  0.7837  1.3029  0.9382
  835SOL     OW 2820   0.838   2.098   1.855  0.0381  0.4216  0.5453
  835SOL    HW1 2821   0.855   2.092   1.949  1.6701 -0.5107  0.2312
  835SOL    HW2 2822   0.830   2.007   1.826 -1.0308  0.7123 -0.1424
  836SOL     OW 2823   3.630   5.208   2.360 -0.0493 -0.2118  0.4553
  836SOL    HW1 2824   3.635   5.193   2.454  1.7207  0.8875  0.5937
  836SOL    HW2 2825   3.713   5.174   2.326  0.6676  2.0257 -0.2379
  837SOL     OW 2826   4.304   3.478   4.910  0.0737 -0.2672 -0.6647
  837SOL    HW1 2827   4.309   3.571   4.933  0.3378 -0.6850  1.1315
  837SOL    HW2 2828   4.222   3.469   4.862 -1.3515  0.4435  1.5256
  838SOL     OW 2829   4.751   2.818   1.666 -0.3856  0.3796 -0.2087
  838SOL    HW1 2830   4.767   2.785   1.755  2.0900  0.3837 -0.5589
  838SOL    HW2 2831   4.764   2.913   1.674 -3.6764  0.9199  0.0391
  839SOL     OW 2832   4.914   4.328   3.125 -0.1028  0.4116  0.1349
  839SOL    HW1 2833   4.909   4.423   3.124  1.3283  0.5054  0.4467
  839SOL    HW2 2834   4.832   4.300   3.167 -0.1959  1.5261  0.7251
  840SOL     OW 2835   4.862   4.161   3.706  0.1616  0.0475 -0.0957
  840SOL    HW1 2836   4.861   4.257   3.706  2.4418  0.1413 -0.3004
  840SOL    HW2 2837   4.786   4.136   3.653  1.1342  1.8496 -2.5552
  841SOL     OW 2838   4.373   1.692   0.399  0.0430 -0.3187  0.3924
  841SOL    HW1 2839   4.406   1.644   0.322  0.4812  1.4317 -0.5539
  841SOL    HW2 2840   4.308   1.753   0.364  0.2989  0.5606  1.3980
  842SOL     OW 2841   4.439   4.579   0.376 -0.2201  0.2760 -0.0927
  842SOL    HW1 2842   4.525   4.590   0.336  0.0235 -0.9707  0.0743
  842SOL    HW2 2843   4.385   4.645   0.333  0.6346  0.5984 -0.7093
  843SOL     OW 2844   2.615   3.301   3.574  0.0766  0.1253 -0.1361
  843SOL    HW1 2845   2.642   3.355   3.648 -0.6030 -0.9890  0.9815
  843SOL    HW2 2846   2.635   3.211   3.602  0.3548 -0.2753 -1.5595
  844SOL     OW 2847   3.399   0.455   0.142  1.1028 -0.2347  0.1617
  844SOL    HW1 2848   3.450   0.414   0.213  0.4261 -2.1557 -0.4011
  844SOL    HW2 2849   3.308   0.436   0.164  0.8102  0.3157 -0.5468
  845SOL     OW 2850   0.419   3.968   1.311 -0.1875 -0.2071  0.6359
  845SOL    HW1 2851   0.462   4.044   1.273 -1.1334  0.4762  0.8810
  845SOL    HW2 2852   0.479   3.938   1.379 -0.0262  0.6381  0.8838
  846SOL     OW 2853   4.189   2.290   1.481  0.6221  0.4523 -0.4655
  846SOL    HW1 2854   4.209   2.202   1.449 -0.3737 -0.2563  0.7795
  846SOL    HW2 2855   4.117   2.320   1.425 -1.8832 -1.2262  1.6164
  847SOL     OW 2856   3.290   4.002   4.874 -0.2022 -0.3900  0.4494
  847SOL    HW1 2857   3.289   4.090   4.912  0.0823 -0.6433  1.0458
  847SOL    HW2 2858   3.381   3.973   4.881 -0.5005 -1.1661  1.2759
  848SOL     OW 2859   5.237   0.609   3.449 -0.6165  0.2778  0.0355
  848SOL    HW1 2860   5.319   0.576   3.486 -0.0211 -2.6610 -3.4428
  848SOL    HW2 2861   5.264   0.671   3.381 -1.0967 -1.5272 -1.8915
  849SOL     OW 2862   3.870   4.971   5.502  0.2073  0.0634 -0.4390
  849SOL    HW1 2863   3.795   4.912   5.504  0.0427  0.2604 -0.7361
  849SOL    HW2 2864   3.845   5.044   5.558  0.7750 -0.5678  0.6816
  850SOL     OW 2865   1.219   4.253   5.039  0.4130  0.3772  0.1707
  850SOL    HW1 2866   1.160   4.183   5.009  0.9677  0.0651 -0.2134
  850SOL    HW2 2867   1.212   4.321   4.972 -0.7105  1.0409  0.9305
  851SOL     OW 2868   5.545   1.427   0.063 -0.0029 -0.0403  0.0494
  851SOL    HW1 2869   5.452   1.433   0.042 -0.3838  1.4415  1.8837
  851SOL    HW2 2870   5.550   1.369   0.138  0.9949 -2.7688 -1.9607
  852SOL     OW 2871   4.202   0.326   4.350 -0.1691  0.5996 -0.0641
  852SOL    HW1 2872   4.154   0.300   4.429  0.8871  1.3875  0.8752
  852SOL    HW2 2873   4.134   0.357   4.290 -0.8536  1.5921  1.1842
  853SOL     OW 2874   5.462   1.151   5.206  0.3809  0.3373 -0.2334
  853SOL    HW1 2875   5.509   1.153   5.289 -0.9496  1.0600  0.5267
  853SOL    HW2 2876   5.496   1.073   5.162  2.7011  1.1286  0.0037
  854SOL     OW 2877   2.113   3.193   2.648 -0.2421 -0.2863  0.0281
  854SOL    HW1 2878   2.069   3.164   2.728 -0.3014 -0.4584 -0.0666
  854SOL    HW2 2879   2.070   3.275   2.625 -0.0444 -0.0958  0.3210
  855SOL     OW 2880   2.953   1.239   2.039  0.9818 -0.9097 -0.0035
  855SOL    HW1 2881   3.031   1.287   2.066  1.1843 -1.3803  0.2468
  855SOL    HW2 2882   2.908   1.298   1.978 -1.3520  1.7624  3.8598
  856SOL     OW 2883   2.321   2.450   3.166 -0.3601 -0.0877 -0.5389
  856SOL    HW1 2884   2.321   2.367   3.213  0.2321  0.1655 -0.0771
  856SOL    HW2 2885   2.388   2.439   3.098  0.5819  0.4241  0.2887
  857SOL     OW 2886   5.253   4.508   3.606 -0.2263 -0.7414 -0.1087
  857SOL    HW1 2887   5.261   4.482   3.514 -0.5935  1.4227 -0.8006
  857SOL    HW2 2888   5.220   4.429   3.649 -1.2400 -1.4617 -2.0452
  858SOL     OW 2889   3.783   1.959   3.374 -0.6500  1.0475 -0.4853
  858SOL    HW1 2890   3.799   1.864   3.376  0.0989  1.1750 -0.0965
  858SOL    HW2 2891   3.771   1.978   3.281  0.7068  0.7885 -0.7469
  859SOL     OW 2892   0.029   4.206   4.628 -0.8334  0.4786  0.3268
  859SOL    HW1 2893   0.118   4.240   4.639 -0.7572  0.6283 -0.6391
  859SOL    HW2 2894   0.030   4.121   4.673 -0.6588  1.1616  1.6442
  860SOL     OW 2895   5.033   1.395   4.211 -0.4100  0.2799 -0.1990
  860SOL    HW1 2896   4.944   1.365   4.230  0.4758 -2.0171  0.7233
  860SOL    HW2 2897   5.088   1.319   4.231  1.8518  1.9133  0.1423
  861SOL     OW 2898   4.213   5.293   1.693  0.5139  0.8318 -0.6372
  861SOL    HW1 2899   4.201   5.207   1.732  1.2733 -0.0521 -2.2877
  861SOL    HW2 2900   4.255   5.345   1.762  0.6283 -0.2835  0.1562
  862SOL     OW 2901   0.671   3.915   4.345 -0.1441 -0.0457 -0.0040
  862SOL    HW1 2902   0.621   3.852   4.292 -0.8462  1.6659 -1.4913
  862SOL    HW2 2903   0.604   3.962   4.395  0.0390  1.4151 -1.0693
  863SOL     OW 2904   3.899   5.240   0.095 -0.5567 -0.4032 -0.5817
  863SOL    HW1 2905   3.945   5.294   0.160 -0.6314  0.5206 -1.2758
  863SOL    HW2 2906   3.809   5.235   0.128 -0.2931 -1.0628  0.0655
  864SOL     OW 2907   1.686   1.520   3.520  0.1043  0.6879 -0.2613
  864SOL    HW1 2908   1.650   1.531   3.608  1.0882 -2.6005  0.7095
  864SOL    HW2 2909   1.775   1.490   3.534 -0.5841 -2.8229 -2.1811
  865SOL     OW 2910   4.050   4.770   1.163  1.2580  0.1291  0.1727
  865SOL    HW1 2911   3.955   4.783   1.173  0.9954 -0.5077 -1.2086
  865SOL    HW2 2912   4.084   4.859   1.149  0.8574  0.3594  0.6214
  866SOL     OW 2913   3.053   1.997   5.308 -0.4470 -0.0413 -0.0598
  866SOL    HW1 2914   2.991   2.017   5.378 -0.0785  1.7995 -0.1994
  866SOL    HW2 2915   3.036   1.906   5.286 -0.0553 -0.9776  2.9506
  867SOL     OW 2916   1.042   1.031   1.954 -0.6263  0.2580  0.1144
  867SOL    HW1 2917   1.024   1.125   1.956 -2.0850 -0.0054  1.2765
  867SOL    HW2 2918   1.004   1.001   1.871  0.4681  0.7717 -0.6002
  868SOL     OW 2919   3.363   1.046   5.076  0.1393 -0.0527  0.6745
  868SOL    HW1 2920   3.291   0.989   5.103 -0.1720 -0.4140 -0.8407
  868SOL    HW2 2921   3.324   1.106   5.013  1.1217 -0.1557 -0.0566
  869SOL     OW 2922   2.687   0.396   0.478  0.2298 -0.1166  0.4519
  869SOL    HW1 2923   2.736   0.314   0.489 -1.0384 -1.2542 -1.6788
  869SOL    HW2 2924   2.744   0.463   0.516  2.1842 -1.7251  0.5436
  870SOL     OW 2925   4.322   5.417   4.545 -0.8836  0.1766 -0.4654
  870SOL    HW1 2926   4.256   5.358   4.583  0.2749  0.0334  1.4286
  870SOL    HW2 2927   4.405   5.388   4.582 -0.0701  1.9680 -0.7664
  871SOL     OW 2928   4.065   0.303   0.981  0.2541 -0.3495  0.2200
  871SOL    HW1 2929   4.078   0.395   1.001  1.7704 -0.1810 -1.3029
  871SOL    HW2 2930   4.144   0.260   1.016 -0.2785 -1.0312  0.6153
  872SOL     OW 2931   1.712   0.422   0.417 -0.8678 -0.2372 -0.2208
  872SOL    HW1 2932   1.750   0.452   0.500 -0.9280 -0.2679 -0.1826
  872SOL    HW2 2933   1.788   0.398   0.364 -0.8819 -1.5870  0.3345
  873SOL     OW 2934   5.056   2.767   1.583 -0.0812  0.0158  0.2064
  873SOL    HW1 2935   4.967   2.779   1.616 -0.2827 -0.3389 -0.1951
  873SOL    HW2 2936   5.048   2.697   1.519  0.5042 -0.0723  0.2238
  874SOL     OW 2937   4.717   2.689   4.944  0.4645 -0.1528 -0.4653
  874SOL    HW1 2938   4.747   2.641   5.022  1.4968  0.6071 -0.3796
  874SOL    HW2 2939   4.721   2.781   4.970 -0.6619  0.0355 -0.9206
  875SOL     OW 2940   1.416   2.965   1.139  0.0195  0.2549 -0.1560
  875SOL    HW1 2941   1.509   2.950   1.124 -0.2928 -1.6432 -0.4720
  875SOL    HW2 2942   1.395   3.042   1.086  0.7787 -1.1235 -2.6352
  876SOL     OW 2943   4.223   5.427   3.413  0.1728  0.4463 -0.6736
  876SOL    HW1 2944   4.228   5.398   3.322 -1.8885 -0.5712 -0.5159
  876SOL    HW2 2945   4.268   5.358   3.462  0.8906  0.7743 -0.8463
  877SOL     OW 2946   0.910   4.629   1.899  0.4967  0.2214  0.2323
  877SOL    HW1 2947   0.884   4.553   1.847 -1.3973  0.5872  0.5731
  877SOL    HW2 2948   0.936   4.695   1.834  1.6557 -0.5126 -0.0782
  878SOL     OW 2949   2.962   5.202   5.392  0.8503 -0.1910 -0.1471
  878SOL    HW1 2950   2.925   5.144   5.459 -1.2647  0.0704 -1.0174
  878SOL    HW2 2951   3.009   5.143   5.333  1.0201 -0.6613  0.4405
  879SOL     OW 2952   4.644   3.363   2.488  1.2411 -0.5960  0.2360
  879SOL    HW1 2953   4.671   3.412   2.410 -1.5715  0.2178 -0.3420
  879SOL    HW2 2954   4.621   3.277   2.454  1.2890 -0.6734  0.4036
  880SOL     OW 2955   0.544   4.617   4.265  0.0643 -0.2505 -0.1121
  880SOL    HW1 2956   0.520   4.582   4.179  0.0610 -1.3875  0.3404
  880SOL    HW2 2957   0.639   4.619   4.264  0.0855 -0.9554  0.1198
  881SOL     OW 2958   3.718   2.075   1.645 -0.3027 -0.5218 -0.2041
  881SOL    HW1 2959   3.674   2.146   1.599  0.7652 -1.4977 -2.9306
  881SOL    HW2 2960   3.790   2.050   1.587  2.0895 -0.9511  2.6688
  882SOL     OW 2961   0.797   0.486   1.135  0.2064 -0.1856  0.2278
  882SOL    HW1 2962   0.749   0.494   1.053  0.6683  2.9328  0.1589
  882SOL    HW2 2963   0.747   0.538   1.197  2.1239  1.0998  0.7771
  883SOL     OW 2964   1.067   1.197   0.741  0.2937 -0.5455  0.6571
  883SOL    HW1 2965   1.122   1.143   0.799 -0.7600 -0.2031  2.0260
  883SOL    HW2 2966   0.980   1.194   0.780  0.1612  2.0607  0.7645
  884SOL     OW 2967   1.597   2.632   2.620  0.5320 -0.4161  0.5083
  884SOL    HW1 2968   1.579   2.558   2.678 -0.4755  0.1545  0.9546
  884SOL    HW2 2969   1.511   2.662   2.591  0.9351  0.3806  0.0832
  885SOL     OW 2970   2.648   0.905   0.075  0.2551  0.2779 -0.2529
  885SOL    HW1 2971   2.726   0.922   0.128  0.5317  3.3582 -1.4806
  885SOL    HW2 2972   2.678   0.845   0.007  0.5000 -1.6895  1.4689
  886SOL     OW 2973   2.731   4.017   0.012  0.2437 -0.2557 -0.1043
  886SOL    HW1 2974   2.811   4.057   0.045  0.3733  0.4878 -1.2479
  886SOL    HW2 2975   2.712   4.066  -0.068  0.3501 -2.4102 -1.5235
  887SOL     OW 2976   5.482   3.529   4.920  0.0177  0.1880 -0.0491
  887SOL    HW1 2977   5.389   3.515   4.939 -0.1892  1.0860 -0.3534
  887SOL    HW2 2978   5.524   3.446   4.943 -0.8299 -0.1611  0.2773
  888SOL     OW 2979   4.315   3.021   0.461 -0.0036 -0.0907 -0.5039
  888SOL    HW1 2980   4.320   3.100   0.407  0.9308  1.2890  1.4635
  888SOL    HW2 2981   4.397   3.021   0.511 -0.8441 -1.2351  0.9533
  889SOL     OW 2982   0.212   2.641   3.872  0.0306 -0.0560 -0.0084
  889SOL    HW1 2983   0.155   2.615   3.944 -1.0458 -0.7002 -1.0536
  889SOL    HW2 2984   0.167   2.609   3.793  1.6132 -0.1665 -0.9046
  890SOL     OW 2985   2.701   1.783   3.425 -0.3080 -0.4006 -0.6156
  890SOL    HW1 2986   2.646   1.718   3.469  0.4051 -1.1717 -0.8209
  890SOL    HW2 2987   2.769   1.731   3.382 -0.0590  0.4527 -1.2831
  891SOL     OW 2988   1.705   5.509   1.318  0.5109  0.2558  0.2297
  891SOL    HW1 2989   1.730   5.496   1.410  1.0240  0.3285  0.1075
  891SOL    HW2 2990   1.789   5.515   1.272  0.2558  0.3998 -0.2182
  892SOL     OW 2991   5.519   2.948   4.131  0.6817 -0.2248  0.0564
  892SOL    HW1 2992   5.436   2.902   4.139 -0.2412  1.4397  0.3579
  892SOL    HW2 2993   5.583   2.889   4.171 -0.4746 -1.1883  0.5231
  893SOL     OW 2994   0.363   3.764   3.238 -0.3660  0.2723 -0.4058
  893SOL    HW1 2995   0.435   3.814   3.275 -0.3439  1.4210 -1.9186
  893SOL    HW2 2996   0.308   3.741   3.313 -0.3531  2.5408  0.3445
  894SOL     OW 2997   0.334   1.871   0.756  0.0055  0.5864 -0.3347
  894SOL    HW1 2998   0.325   1.823   0.674 -0.6089  1.6949 -0.9294
  894SOL    HW2 2999   0.391   1.945   0.735 -0.5614  1.1627  0.1137
  895SOL     OW 3000   1.477   4.727   5.545  0.4519  0.4549 -0.6205
  895SOL    HW1 3001   1.410   4.681   5.595  0.5652  1.7320  0.7963
  895SOL    HW2 3002   1.529   4.657   5.505 -1.1911 -0.5686 -1.0780
  896SOL     OW 3003   4.994   1.043   4.566  0.2215  0.1956  0.0863
  896SOL    HW1 3004   5.063   1.105   4.542  0.3332  0.3056  0.6831
  896SOL    HW2 3005   5.033   0.990   4.636  0.5657 -1.3452 -1.2071
  897SOL     OW 3006   0.255   0.803   2.557  0.3431 -0.6588 -0.6604
  897SOL    HW1 3007   0.179   0.778   2.609  0.8187  0.5048  0.6263
  897SOL    HW2 3008   0.217   0.838   2.475 -0.4215 -1.8797 -0.8561
  898SOL     OW 3009   1.753   2.584   5.388  0.1764 -0.3505 -0.3500
  898SOL    HW1 3010   1.791   2.549   5.308  0.5858 -0.6407 -0.0275
  898SOL    HW2 3011   1.818   2.646   5.420 -0.7856  1.2024 -1.2340
  899SOL     OW 3012   1.029   3.718   1.799 -0.0133  0.2144 -0.5760
  899SOL    HW1 3013   1.075   3.783   1.852 -2.2240  0.5086  1.1429
  899SOL    HW2 3014   1.098   3.669   1.755  1.9097  0.8869  1.5079
  900SOL     OW 3015   2.882   2.335   4.651 -0.4332  0.5261  0.1737
  900SOL    HW1 3016   2.916   2.319   4.739 -0.6981 -1.2374 -0.0208
  900SOL    HW2 3017   2.891   2.251   4.606  1.5959  1.8613 -2.1625
  901SOL     OW 3018   3.979   0.405   2.461 -0.4082 -0.5007  0.0093
  901SOL    HW1 3019   4.008   0.430   2.373 -2.8545  0.4504 -0.5959
  901SOL    HW2 3020   4.056   0.362   2.499  1.5928  1.3510 -1.6176
  902SOL     OW 3021   4.257   1.879   1.495 -0.2797  0.1324 -0.1801
  902SOL    HW1 3022   4.253   1.791   1.457 -1.4610  0.0959  0.0072
  902SOL    HW2 3023   4.298   1.867   1.580 -1.7483 -0.4804  0.4758
  903SOL     OW 3024   2.190   3.592   4.793 -0.0602  0.9204 -0.0060
  903SOL    HW1 3025   2.202   3.506   4.753  0.1048  1.5706 -1.4026
  903SOL    HW2 3026   2.134   3.575   4.870 -2.2497 -0.1039 -1.7006
  904SOL     OW 3027   1.731   3.573   3.855  0.1442 -0.6387  0.3171
  904SOL    HW1 3028   1.798   3.561   3.922  0.0171 -0.3115  0.5058
  904SOL    HW2 3029   1.781   3.587   3.774  0.3147 -0.0728  0.5120
  905SOL     OW 3030   1.826   4.080   5.492 -0.3176  0.3049 -0.0907
  905SOL    HW1 3031   1.834   4.176   5.490  1.3029  0.2380  1.3818
  905SOL    HW2 3032   1.820   4.055   5.400  1.1411  1.7189 -0.6171
  906SOL     OW 3033   2.321   1.331   4.574  0.3716 -0.8637 -0.6463
  906SOL    HW1 3034   2.349   1.382   4.650 -0.7266 -0.4612 -0.4864
  906SOL    HW2 3035   2.237   1.294   4.599  0.0737 -0.8714 -1.6007
  907SOL     OW 3036   5.166   4.103   1.197 -0.3014 -0.7382 -0.2887
  907SOL    HW1 3037   5.260   4.087   1.192  0.0981  0.0239  2.9360
  907SOL    HW2 3038   5.155   4.192   1.163 -0.0849 -1.2364 -1.7530
  908SOL     OW 3039   1.224   4.325   1.130 -0.0072 -0.0335 -0.2070
  908SOL    HW1 3040   1.190   4.375   1.056 -0.7511 -0.5181 -0.2125
  908SOL    HW2 3041   1.283   4.385   1.176 -1.1465  0.9762 -0.0017
  909SOL     OW 3042   3.012   1.971   2.540  0.0033 -0.0798  0.1245
  909SOL    HW1 3043   2.992   1.988   2.448 -0.5201  0.2806  0.2962
  909SOL    HW2 3044   2.961   1.893   2.562 -0.5413  0.3244  0.3267
  910SOL     OW 3045   2.353   1.932   4.689  1.0993  0.1064 -0.7345
  910SOL    HW1 3046   2.367   1.838   4.685 -1.5581 -0.3960 -0.6339
  910SOL    HW2 3047   2.354   1.952   4.783 -2.0629 -0.6340 -0.4231
  911SOL     OW 3048   4.607   4.749   2.951  0.4848  0.1334 -0.2246
  911SOL    HW1 3049   4.625   4.758   3.045 -2.7675  0.1393  0.4900
  911SOL    HW2 3050   4.589   4.839   2.922  2.9257  0.3693 -1.3085
  912SOL     OW 3051   2.989   2.071   4.853 -0.3959 -0.1102  0.4503
  912SOL    HW1 3052   2.978   2.063   4.759 -0.9977 -2.6413  0.6704
  912SOL    HW2 3053   2.899   2.075   4.887 -0.1838  1.4722  0.9170
  913SOL     OW 3054   4.542   0.743   2.883  0.2477 -0.2516  0.0403
  913SOL    HW1 3055   4.529   0.765   2.791 -0.7331 -0.3243  0.1536
  913SOL    HW2 3056   4.636   0.725   2.890  0.5099  0.7304 -0.7302
  914SOL     OW 3057   4.616   3.402   3.049 -0.2184 -0.4330  0.0106
  914SOL    HW1 3058   4.630   3.451   3.130  2.5064 -0.5046 -0.3227
  914SOL    HW2 3059   4.543   3.343   3.069 -1.0209  1.0249  1.6783
  915SOL     OW 3060   5.035   5.334   1.347  0.2998 -0.0676  0.1232
  915SOL    HW1 3061   4.968   5.266   1.347  1.9815 -1.8380  1.7771
  915SOL    HW2 3062   5.097   5.307   1.279  0.0194  0.8674 -0.5237
  916SOL     OW 3063   0.622   5.193   3.241 -0.1529  0.0416  0.1216
  916SOL    HW1 3064   0.678   5.244   3.300 -0.3239 -0.8748  1.1164
  916SOL    HW2 3065   0.557   5.255   3.209  0.4097  0.7317  0.2968
  917SOL     OW 3066   2.799   5.008   1.734  0.1867 -0.1574  0.5392
  917SOL    HW1 3067   2.737   5.030   1.665  0.4003  0.5263  0.5552
  917SOL    HW2 3068   2.749   5.012   1.815  0.2560  0.4559  0.5585
  918SOL     OW 3069   0.274   2.651   1.366 -0.5760  0.1709 -0.1768
  918SOL    HW1 3070   0.288   2.722   1.304 -0.0547  0.1816 -0.0464
  918SOL    HW2 3071   0.269   2.694   1.451 -0.9956  0.1260 -0.1764
  919SOL     OW 3072   1.648   1.130   2.418  0.4512  0.4290 -0.7184
  919SOL    HW1 3073   1.733   1.094   2.444  0.0589  1.7914  3.1059
  919SOL    HW2 3074   1.597   1.054   2.390  1.5930 -1.0875  1.0965
  920SOL     OW 3075   2.382   0.214   0.432  0.0087  0.5693  0.1925
  920SOL    HW1 3076   2.404   0.255   0.515 -0.3954 -0.3489  0.7721
  920SOL    HW2 3077   2.417   0.273   0.365 -0.3090  1.6977  0.9944
  921SOL     OW 3078   2.343   4.986   5.139 -0.2312 -0.3080  0.6280
  921SOL    HW1 3079   2.344   4.891   5.126 -1.2106 -0.2875  0.3493
  921SOL    HW2 3080   2.303   5.020   5.059  2.8768  0.5953 -0.7012
  922SOL     OW 3081   5.144   3.311   4.355  0.0753 -0.4777  0.2888
  922SOL    HW1 3082   5.071   3.366   4.382 -0.9679 -2.1914  1.1477
  922SOL    HW2 3083   5.104   3.244   4.299  1.3586 -0.1930 -1.0287
  923SOL     OW 3084   1.712   3.484   2.642  0.2779 -0.3614  0.3279
  923SOL    HW1 3085   1.679   3.401   2.678 -2.3633  1.4032  2.4187
  923SOL    HW2 3086   1.633   3.528   2.609  1.4201  1.7957  0.3123
  924SOL     OW 3087   3.422   2.920   5.179  0.2832  0.0956 -0.0557
  924SOL    HW1 3088   3.387   2.990   5.234 -0.3139  0.4137 -0.8145
  924SOL    HW2 3089   3.516   2.919   5.198 -0.0861 -0.7167  1.9509
  925SOL     OW 3090   1.730   3.338   0.835  0.6418  1.0672  0.2776
  925SOL    HW1 3091   1.779   3.274   0.886  1.8416  2.1396  0.5150
  925SOL    HW2 3092   1.775   3.341   0.750  0.3266  1.2843  0.1124
  926SOL     OW 3093   3.172   1.357   3.662  0.0332  0.2846  0.1598
  926SOL    HW1 3094   3.178   1.452   3.672  0.0249  0.3082 -0.0632
  926SOL    HW2 3095   3.123   1.344   3.582 -0.9929  0.0880  0.8039
  927SOL     OW 3096   1.252   5.351   1.265 -0.1962 -0.0566 -0.1098
  927SOL    HW1 3097   1.330   5.335   1.318 -0.9151  1.0426  1.3495
  927SOL    HW2 3098   1.267   5.437   1.226 -1.4421  1.0232  1.6888
  928SOL     OW 3099   0.169   1.524   0.405 -0.1593  0.3641 -0.6156
  928SOL    HW1 3100   0.092   1.500   0.457  0.0797 -0.9172 -0.8205
  928SOL    HW2 3101   0.134   1.574   0.331 -0.7269  0.3363 -0.3687
  929SOL     OW 3102   2.496   3.863   2.272  0.7701 -0.0242  0.5115
  929SOL    HW1 3103   2.509   3.790   2.213 -1.5700  0.3310 -0.5541
  929SOL    HW2 3104   2.545   3.840   2.351  1.4541 -1.9243 -0.4301
  930SOL     OW 3105   5.105   3.177   3.720  0.0380 -0.2098 -0.7165
  930SOL    HW1 3106   5.114   3.183   3.815 -1.0904  1.2655 -0.6703
  930SOL    HW2 3107   5.028   3.121   3.708 -2.1075  2.4832 -0.5891
  931SOL     OW 3108   3.782   5.100   1.566  0.1686  0.9462  0.2534
  931SOL    HW1 3109   3.822   5.016   1.589 -1.7621  0.0267  0.5140
  931SOL    HW2 3110   3.841   5.139   1.503  0.1802 -1.5629 -1.4136
  932SOL     OW 3111   3.636   3.118   4.201  0.1784 -0.2433  0.0771
  932SOL    HW1 3112   3.614   3.036   4.245 -1.5376  0.0876 -0.1038
  932SOL    HW2 3113   3.685   3.168   4.266  0.4159 -1.0138  0.5066
  933SOL     OW 3114   2.039   5.477   0.414 -0.6916  0.6288  0.5006
  933SOL    HW1 3115   1.996   5.455   0.497  1.1182  0.5039  1.4570
  933SOL    HW2 3116   2.069   5.567   0.426  1.1607  0.0270  0.7338
  934SOL     OW 3117   4.575   5.220   3.756 -0.2859  0.5345 -0.3137
  934SOL    HW1 3118   4.528   5.259   3.829 -1.3654  1.2782 -1.3785
  934SOL    HW2 3119   4.565   5.125   3.769  0.1821  0.6359  0.8911
  935SOL     OW 3120   0.004   0.775   3.376  0.3906 -0.0589  0.1738
  935SOL    HW1 3121  -0.083   0.790   3.339  0.6619  0.8353 -0.1213
  935SOL    HW2 3122   0.051   0.728   3.307 -0.2930 -1.9129  0.8959
  936SOL     OW 3123   5.011   4.654   3.650  0.2770  0.3191  0.3020
  936SOL    HW1 3124   5.101   4.626   3.632 -0.6338 -1.7692 -1.4273
  936SOL    HW2 3125   5.021   4.739   3.693  3.0326  0.5939 -0.6577
  937SOL     OW 3126   4.625   4.808   3.226  0.4969  0.1783 -0.3880
  937SOL    HW1 3127   4.656   4.879   3.282  2.9051 -1.0347 -0.0285
  937SOL    HW2 3128   4.566   4.758   3.282  1.0154  0.3303  0.3121
  938SOL     OW 3129   1.820   4.196   5.237  0.3343 -0.9939 -0.0430
  938SOL    HW1 3130   1.847   4.284   5.261 -1.5899 -0.1781 -0.6888
  938SOL    HW2 3131   1.845   4.188   5.145 -0.6047 -0.6386 -0.3372
  939SOL     OW 3132   3.709   3.930   0.936 -0.2919  0.4096  0.2432
  939SOL    HW1 3133   3.631   3.967   0.893 -0.3636  0.8821  0.7699
  939SOL    HW2 3134   3.761   3.895   0.864 -1.9900 -1.8923  0.0277
  940SOL     OW 3135   2.455   2.720   5.553  0.4176 -0.1550 -0.0900
  940SOL    HW1 3136   2.449   2.803   5.505  1.5906 -0.4778 -0.8397
  940SOL    HW2 3137   2.543   2.689   5.535  0.4012 -0.9830  1.1754
  941SOL     OW 3138   5.542   5.508   1.873 -0.7045 -0.9236  0.1921
  941SOL    HW1 3139   5.632   5.505   1.840 -0.1807  1.6644  1.1546
  941SOL    HW2 3140   5.537   5.433   1.932  1.2574 -0.4911  1.0165
  942SOL     OW 3141   2.205   1.325   0.598 -0.2845 -0.3040  0.1980
  942SOL    HW1 3142   2.288   1.299   0.637 -0.2343  1.2737  1.2162
  942SOL    HW2 3143   2.145   1.334   0.672 -1.2094 -0.8418 -0.4641
  943SOL     OW 3144   1.296   1.595   3.524 -0.2137 -0.5284  0.3989
  943SOL    HW1 3145   1.308   1.614   3.430 -1.4141 -1.2063  0.0938
  943SOL    HW2 3146   1.232   1.660   3.553 -0.1894 -0.6162  0.6443
  944SOL     OW 3147   3.745   1.254   3.627 -0.4176 -0.0005 -0.3573
  944SOL    HW1 3148   3.714   1.177   3.675  0.0253 -1.5809 -2.4812
  944SOL    HW2 3149   3.670   1.313   3.626 -1.1939 -0.9431  0.2104
  945SOL     OW 3150   1.427   2.287   2.611  0.0360  0.3811 -0.1002
  945SOL    HW1 3151   1.489   2.317   2.677 -1.4914  0.9051  1.1550
  945SOL    HW2 3152   1.432   2.353   2.542  0.2157  0.9214  0.4184
  946SOL     OW 3153   0.157   4.488   1.448  0.0121 -0.2804  0.2085
  946SOL    HW1 3154   0.155   4.396   1.473  0.6216 -0.2192  0.4923
  946SOL    HW2 3155   0.067   4.508   1.422 -0.0585 -1.0263 -0.1301
  947SOL     OW 3156   0.293   0.523   0.840 -0.6337 -0.2096 -0.8616
  947SOL    HW1 3157   0.267   0.612   0.865 -0.9525 -0.3005 -0.8682
  947SOL    HW2 3158   0.359   0.498   0.904 -0.4850  0.0667 -0.9087
  948SOL     OW 3159   4.658   0.874   0.479  0.3570  0.5738  0.2987
  948SOL    HW1 3160   4.700   0.789   0.461  1.9954  1.6016 -1.1101
  948SOL    HW2 3161   4.723   0.922   0.530 -0.5759  0.9985  1.1184
  949SOL     OW 3162   3.556   0.092   2.574 -0.3841  0.5145 -0.3076
  949SOL    HW1 3163   3.543   0.149   2.498 -0.1208  1.0657  0.0602
  949SOL    HW2 3164   3.517   0.139   2.647  0.2206  0.4316  0.0819
  950SOL     OW 3165   1.555   5.525   0.932  0.6120 -0.3320 -0.1063
  950SOL    HW1 3166   1.529   5.590   0.866  0.2105 -0.4441 -0.0628
  950SOL    HW2 3167   1.505   5.549   1.010  0.9065 -0.3422  0.0857
  951SOL     OW 3168   0.467   2.082   0.684  0.1433  0.1869 -0.3566
  951SOL    HW1 3169   0.533   2.150   0.696  0.4410 -0.2846  0.9344
  951SOL    HW2 3170   0.439   2.091   0.593  2.5619 -0.1083 -1.2036
  952SOL     OW 3171   0.890   4.467   5.260 -0.0491 -0.3364  0.3807
  952SOL    HW1 3172   0.859   4.483   5.170  0.3879  0.5255  0.3774
  952SOL    HW2 3173   0.952   4.394   5.251 -0.6971 -0.8648  0.1230
  953SOL     OW 3174   5.071   2.015   4.326  0.6658  0.2477  0.7926
  953SOL    HW1 3175   5.004   2.080   4.350  0.8523  0.6818  0.1630
  953SOL    HW2 3176   5.021   1.934   4.313  0.0147  0.8916 -1.1251
  954SOL     OW 3177   2.711   3.111   1.722  0.2372 -0.0656 -0.1639
  954SOL    HW1 3178   2.794   3.086   1.680  0.7106  1.5702 -0.2997
  954SOL    HW2 3179   2.649   3.119   1.650 -0.1555 -1.5925 -0.0309
  955SOL     OW 3180   5.159   2.989   4.609 -0.3649 -0.0197 -0.1736
  955SOL    HW1 3181   5.149   2.937   4.529 -1.1652 -0.0986 -0.0260
  955SOL    HW2 3182   5.243   3.034   4.598  0.5244 -1.5926 -0.1603
  956SOL     OW 3183   0.768   3.220   3.241 -0.2000  0.0092 -0.2031
  956SOL    HW1 3184   0.690   3.213   3.185 -0.9885  2.3952  0.4910
  956SOL    HW2 3185   0.804   3.307   3.221  0.5575  0.1565  1.6452
  957SOL     OW 3186   2.579   1.791   2.427 -0.3073 -0.0950  0.4582
  957SOL    HW1 3187   2.496   1.794   2.475  1.2619 -0.2716  3.4470
  957SOL    HW2 3188   2.618   1.707   2.453  1.5321  0.7414  0.5478
  958SOL     OW 3189   5.464   4.387   4.773 -0.5047  0.4075 -0.1883
  958SOL    HW1 3190   5.514   4.340   4.706  0.7764  0.2060  0.8512
  958SOL    HW2 3191   5.375   4.390   4.739  0.0499  0.0745 -1.7615
  959SOL     OW 3192   3.197   2.984   3.238 -0.4476 -0.0730 -0.3474
  959SOL    HW1 3193   3.146   2.903   3.249  1.8806 -1.8448 -1.8203
  959SOL    HW2 3194   3.267   2.976   3.303  0.5921  0.0684 -1.4410
  960SOL     OW 3195   3.236   5.280   0.252 -0.1325  0.3228 -0.0220
  960SOL    HW1 3196   3.194   5.237   0.177 -0.1624  1.1350 -0.4822
  960SOL    HW2 3197   3.304   5.335   0.214 -0.6491  1.3322  0.4766
  961SOL     OW 3198   0.167   5.366   4.581  0.0005  0.6882  0.1718
  961SOL    HW1 3199   0.097   5.346   4.644 -0.6643 -1.0632 -1.0494
  961SOL    HW2 3200   0.138   5.445   4.537 -0.3517  0.9634  0.8838
  962SOL     OW 3201   1.759   3.315   1.438 -0.0815 -0.3910 -0.1830
  962SOL    HW1 3202   1.787   3.394   1.392  0.6781 -0.0007  0.8978
  962SOL    HW2 3203   1.692   3.346   1.499  1.4730 -0.1799  1.5390
  963SOL     OW 3204   5.121   4.856   2.211 -0.0690  0.2640  0.0065
  963SOL    HW1 3205   5.030   4.870   2.237 -0.3297 -0.5075 -0.4582
  963SOL    HW2 3206   5.121   4.770   2.168  1.5855 -1.7943  3.6133
  964SOL     OW 3207   1.613   4.801   4.635  0.1762 -0.1402  0.1603
  964SOL    HW1 3208   1.657   4.764   4.712 -1.0809 -0.0219  0.9727
  964SOL    HW2 3209   1.522   4.774   4.645 -0.4989  1.8925 -0.0238
  965SOL     OW 3210   2.732   2.088   4.927  0.1937  0.1212  0.0686
  965SOL    HW1 3211   2.722   2.163   4.985  0.7912 -1.5912  2.5330
  965SOL    HW2 3212   2.642   2.062   4.906 -0.0525  2.2111 -1.9579
  966SOL     OW 3213   0.136   5.467   4.126  0.1161 -0.6131  0.5103
  966SOL    HW1 3214   0.080   5.500   4.196 -0.3411 -0.5013  0.0991
  966SOL    HW2 3215   0.208   5.422   4.171 -1.2654 -2.3950  1.0585
  967SOL     OW 3216   3.334   3.526   1.515  0.0209 -0.3691 -0.1452
  967SOL    HW1 3217   3.358   3.603   1.464  1.1680 -1.2667 -1.0176
  967SOL    HW2 3218   3.267   3.557   1.576  0.6683  1.3761 -0.2725
  968SOL     OW 3219   0.412   0.380   1.388 -0.5137 -0.2985  0.0886
  968SOL    HW1 3220   0.368   0.463   1.369  0.2670  0.2063  0.4273
  968SOL    HW2 3221   0.484   0.404   1.447 -0.1893 -1.1955  0.0744
  969SOL     OW 3222   2.901   2.496   0.195  0.1357  0.1688  0.2014
  969SOL    HW1 3223   2.993   2.499   0.219  0.2406 -0.4404 -0.1044
  969SOL    HW2 3224   2.897   2.438   0.119 -0.2214  1.9089 -1.1553
  970SOL     OW 3225   0.128   0.406   2.288  0.0167 -0.4223 -0.0206
  970SOL    HW1 3226   0.100   0.319   2.262 -0.6718 -0.1817 -0.1106
  970SOL    HW2 3227   0.220   0.411   2.263  0.1339 -1.2147  0.2396
  971SOL     OW 3228   0.402   0.821   3.641  0.0033  0.0981 -0.3046
  971SOL    HW1 3229   0.388   0.797   3.549  0.1739 -1.1467 -0.0264
  971SOL    HW2 3230   0.418   0.915   3.639 -1.2607  0.3184 -1.4091
  972SOL     OW 3231   2.950   0.741   2.864  0.1777  0.3894  0.4294
  972SOL    HW1 3232   2.962   0.785   2.948 -0.3039 -1.1029  1.3178
  972SOL    HW2 3233   2.858   0.715   2.863  0.2804  0.0177 -0.3633
  973SOL     OW 3234   2.012   5.017   4.572  0.1085  0.1822  0.7445
  973SOL    HW1 3235   1.917   5.021   4.558  0.5425  1.3073 -3.3875
  973SOL    HW2 3236   2.037   4.929   4.545  0.5192  1.1640 -2.6288
  974SOL     OW 3237   1.500   3.487   1.305 -0.4552 -0.3969 -0.0555
  974SOL    HW1 3238   1.574   3.540   1.335 -0.2662  1.4840 -3.3653
  974SOL    HW2 3239   1.531   3.449   1.223 -2.5825 -1.0348 -0.6063
  975SOL     OW 3240   4.850   1.075   2.504  0.2803  0.5661 -0.3061
  975SOL    HW1 3241   4.917   1.137   2.473 -0.4362  0.7761 -1.4727
  975SOL    HW2 3242   4.810   1.042   2.424  1.2196 -2.0927  0.2391
  976SOL     OW 3243   2.682   4.538   1.346 -0.1554 -0.6048  0.1804
  976SOL    HW1 3244   2.614   4.533   1.278  0.3563 -1.1926 -0.3033
  976SOL    HW2 3245   2.725   4.452   1.343  0.9696 -0.0557  0.0949
  977SOL     OW 3246   0.660   4.230   2.969 -0.3448 -0.1502 -0.6210
  977SOL    HW1 3247   0.667   4.173   3.045  0.8318  0.5749 -0.1585
  977SOL    HW2 3248   0.651   4.318   3.006 -0.5937  0.1291 -1.3221
  978SOL     OW 3249   0.725   3.143   2.147 -0.1202  0.4272  0.3017
  978SOL    HW1 3250   0.660   3.182   2.205 -0.3462 -0.2470  0.5139
  978SOL    HW2 3251   0.791   3.107   2.206 -0.0754  0.2139  0.1215
  979SOL     OW 3252   3.209   5.373   3.517  0.4327  0.1276  0.4333
  979SOL    HW1 3253   3.204   5.281   3.543 -2.3527  0.4720  1.4459
  979SOL    HW2 3254   3.127   5.390   3.471  1.1845  1.9732 -0.3322
  980SOL     OW 3255   3.429   4.348   3.740 -0.0023 -0.0686  0.2643
  980SOL    HW1 3256   3.515   4.308   3.753 -0.8264 -1.9911  0.1989
  980SOL    HW2 3257   3.383   4.286   3.684 -1.1357  1.3730 -0.4499
  981SOL     OW 3258   0.437   1.922   4.416 -0.6356 -0.6205 -0.3880
  981SOL    HW1 3259   0.501   1.897   4.483 -0.1289 -0.5679 -0.8508
  981SOL    HW2 3260   0.379   1.984   4.461  0.1704  0.0123 -0.2070
  982SOL     OW 3261   1.218   2.038   4.003  0.2412 -0.3841  0.6277
  982SOL    HW1 3262   1.261   1.954   3.984  0.0405 -0.9808  2.5909
  982SOL    HW2 3263   1.190   2.070   3.917 -0.7189 -2.9020 -0.0952
  983SOL     OW 3264   4.720   0.334   4.502  0.1448 -0.1130  0.5859
  983SOL    HW1 3265   4.727   0.317   4.596 -0.0477  1.2606  0.8705
  983SOL    HW2 3266   4.626   0.328   4.484  0.0918  0.4779  0.6594
  984SOL     OW 3267   3.782   2.586   2.431  0.4115 -0.3269  0.7510
  984SOL    HW1 3268   3.862   2.574   2.379 -0.2795  3.1045 -1.4202
  984SOL    HW2 3269   3.711   2.580   2.367 -0.7663  0.6278  1.9199
  985SOL     OW 3270   2.973   3.401   3.725  0.4529  0.5840 -0.1377
  985SOL    HW1 3271   2.971   3.381   3.819  0.6788  1.6454  0.1050
  985SOL    HW2 3272   2.916   3.477   3.716 -0.2357 -0.0149 -1.0021
  986SOL     OW 3273   1.288   4.678   0.349 -0.7238 -0.3212 -0.5908
  986SOL    HW1 3274   1.340   4.751   0.382  0.2619  0.1258 -2.9278
  986SOL    HW2 3275   1.332   4.599   0.382 -0.8840  0.0982  0.6560
  987SOL     OW 3276   5.162   4.122   3.457 -0.1667 -0.7923 -0.0857
  987SOL    HW1 3277   5.135   4.214   3.447  0.4078 -0.5375  0.6522
  987SOL    HW2 3278   5.256   4.126   3.470 -0.3678 -1.3210  1.8894
  988SOL     OW 3279   5.007   0.930   1.818 -0.7956 -0.4155  0.0507
  988SOL    HW1 3280   5.008   0.969   1.906 -0.3273  0.2275 -0.2341
  988SOL    HW2 3281   4.917   0.942   1.788 -1.4034 -2.0677  1.0502
  989SOL     OW 3282   3.083   2.204   1.386 -0.4678  0.5668 -0.4184
  989SOL    HW1 3283   3.152   2.166   1.440 -0.4502  2.3740  0.9337
  989SOL    HW2 3284   3.075   2.145   1.312  1.3858 -0.5617  0.2160
  990SOL     OW 3285   0.306   1.936   1.881 -0.6892  0.0395 -0.3924
  990SOL    HW1 3286   0.264   1.851   1.868 -0.3878  0.1312 -2.1996
  990SOL    HW2 3287   0.372   1.941   1.812  0.4213  1.0702  0.6948
  991SOL     OW 3288   4.666   5.408   3.013  0.1988  0.2316 -1.0264
  991SOL    HW1 3289   4.682   5.500   3.035 -1.8274  0.4297 -0.1354
  991SOL    HW2 3290   4.708   5.396   2.928  1.3168  1.7038 -0.7279
  992SOL     OW 3291   3.987   2.781   3.110  0.1865 -0.5833 -0.3399
  992SOL    HW1 3292   4.037   2.705   3.081 -0.3828 -1.0380 -0.1302
  992SOL    HW2 3293   4.025   2.854   3.061  2.7101 -0.4872  1.5104
  993SOL     OW 3294   3.871   4.894   5.011  0.0024 -0.2489  0.2194
  993SOL    HW1 3295   3.844   4.973   5.057 -1.8642  1.1873 -3.0292
  993SOL    HW2 3296   3.792   4.863   4.967  1.4767 -1.8696 -1.4941
  994SOL     OW 3297   5.166   4.543   0.146 -0.0080  0.0686  0.6854
  994SOL    HW1 3298   5.231   4.613   0.140 -1.2519  1.1981 -0.4629
  994SOL    HW2 3299   5.157   4.511   0.056  0.4425 -1.5236  1.1691
  995SOL     OW 3300   3.220   0.100   4.170 -0.3254  0.3684 -0.4173
  995SOL    HW1 3301   3.241   0.026   4.113 -1.9394 -1.4872  1.2683
  995SOL    HW2 3302   3.124   0.101   4.175 -0.2787  1.4289  1.0154
  996SOL     OW 3303   4.460   2.643   3.878 -0.9088  0.1515  0.2244
  996SOL    HW1 3304   4.497   2.692   3.804 -1.0437  1.1148  0.7841
  996SOL    HW2 3305   4.526   2.577   3.898  0.2037  1.3776  0.7354
  997SOL     OW 3306   0.526   4.990   4.389  0.2255 -0.1324  0.2460
  997SOL    HW1 3307   0.501   5.082   4.398  0.0562  0.0174 -1.4405
  997SOL    HW2 3308   0.448   4.947   4.356  0.7107 -0.6029 -0.3157
  998SOL     OW 3309   0.746   1.834   4.114 -0.1935  0.5141 -0.1828
  998SOL    HW1 3310   0.749   1.906   4.050 -0.1101  1.1231  0.4930
  998SOL    HW2 3311   0.804   1.768   4.078  2.9660  2.3767  1.0311
  999SOL     OW 3312   3.637   1.778   1.935 -0.1885 -0.2341 -0.6035
  999SOL    HW1 3313   3.599   1.757   2.021  0.3861 -1.1414 -0.5632
  999SOL    HW2 3314   3.696   1.852   1.953 -0.5917  0.0315 -0.3480
 1000SOL     OW 3315   1.323   5.351   0.540 -0.0168 -0.3353  0.0913
 1000SOL    HW1 3316   1.314   5.363   0.446  1.3260 -1.0505 -0.1557
 1000SOL    HW2 3317   1.243   5.390   0.577  0.2155  1.4927 -1.1913
 1001SOL     OW 3318   3.954   2.015   0.969  0.1224  0.5759 -0.3425
 1001SOL    HW1 3319   4.046   1.997   0.950  0.5461 -0.4612  2.2667
 1001SOL    HW2 3320   3.949   2.111   0.971  1.3272  0.6586  0.0789
 1002SOL     OW 3321   4.898   0.350   4.709  0.1036  0.6594 -0.4031
 1002SOL    HW1 3322   4.973   0.317   4.660  0.1547 -0.0701  0.1487
 1002SOL    HW2 3323   4.926   0.349   4.801 -0.9284 -0.6958 -0.0614
 1003SOL     OW 3324   1.964   5.125   4.059  0.0244 -0.0447  0.0707
 1003SOL    HW1 3325   1.987   5.141   4.150  1.6398  0.4101 -0.3808
 1003SOL    HW2 3326   1.890   5.183   4.042 -0.5609 -0.4315  1.1865
 1004SOL     OW 3327   1.090   4.608   0.140  0.4554 -0.1575  0.1236
 1004SOL    HW1 3328   1.165   4.608   0.199  0.1347 -0.4730  0.5402
 1004SOL    HW2 3329   1.113   4.671   0.072  0.9077  0.0775  0.4860
 1005SOL     OW 3330   1.905   3.651   1.835  0.5100 -0.3880 -0.2732
 1005SOL    HW1 3331   1.882   3.661   1.743  0.4109 -2.1427 -0.4657
 1005SOL    HW2 3332   1.995   3.618   1.833  1.2350  1.4065  0.3424
 1006SOL     OW 3333   0.870   0.482   3.421 -0.4594  0.0150  0.2809
 1006SOL    HW1 3334   0.932   0.508   3.353  0.1357  0.6500  1.0451
 1006SOL    HW2 3335   0.918   0.419   3.475 -0.6724  0.0712  0.5367
 1007SOL     OW 3336   3.340   5.421   4.024  0.1020 -0.1372 -0.2700
 1007SOL    HW1 3337   3.277   5.354   3.995  0.2328 -0.3662 -0.0246
 1007SOL    HW2 3338   3.403   5.373   4.078 -1.4811  0.6585  2.4685
 1008SOL     OW 3339   5.139   4.474   3.994 -0.4454 -0.1996  0.0889
 1008SOL    HW1 3340   5.221   4.491   4.042 -0.1417 -1.9283  0.2526
 1008SOL    HW2 3341   5.073   4.525   4.040  0.4588  0.8646  0.2369
 1009SOL     OW 3342   2.869   0.550   3.099  0.3157  0.0882  0.4014
 1009SOL    HW1 3343   2.846   0.638   3.069  2.3680  0.3846 -0.5010
 1009SOL    HW2 3344   2.964   0.553   3.110  0.1977 -1.4303  2.4081
 1010SOL     OW 3345   3.629   2.308   1.520 -0.8487  0.0043 -0.1975
 1010SOL    HW1 3346   3.668   2.343   1.440 -0.0420 -2.5965 -1.0542
 1010SOL    HW2 3347   3.537   2.334   1.516 -0.2820  2.1401 -0.5939
 1011SOL     OW 3348   3.796   3.690   2.211  0.3303 -0.1482 -0.3031
 1011SOL    HW1 3349   3.758   3.741   2.139  0.0182 -1.3563 -1.0206
 1011SOL    HW2 3350   3.757   3.603   2.203  2.4096 -1.1487 -0.4206
 1012SOL     OW 3351   3.144   2.362   2.895 -0.3793 -0.2913 -0.0897
 1012SOL    HW1 3352   3.137   2.372   2.990  1.1141 -0.5502  0.0790
 1012SOL    HW2 3353   3.190   2.279   2.883 -1.6300 -0.8710 -1.0958
 1013SOL     OW 3354   3.769   4.771   3.378 -0.1820 -0.1376  0.3368
 1013SOL    HW1 3355   3.797   4.682   3.402  1.8747  0.8665  2.1014
 1013SOL    HW2 3356   3.843   4.807   3.329 -0.7828  0.7538  0.0633
 1014SOL     OW 3357   4.369   4.869   1.544  0.3982 -0.2247 -0.3663
 1014SOL    HW1 3358   4.458   4.847   1.517 -0.3674 -2.4799 -1.3532
 1014SOL    HW2 3359   4.320   4.786   1.535 -1.2340  0.2635  2.5937
 1015SOL     OW 3360   3.941   5.446   3.118  0.0714 -0.1546  0.3098
 1015SOL    HW1 3361   4.033   5.428   3.097 -0.2514 -2.0029  0.3681
 1015SOL    HW2 3362   3.943   5.484   3.206  0.8019  0.3109  0.1034
 1016SOL     OW 3363   4.587   1.878   0.409  0.4260 -0.1644  0.1113
 1016SOL    HW1 3364   4.624   1.893   0.496 -1.2974 -0.8050  0.9871
 1016SOL    HW2 3365   4.513   1.820   0.424  2.2821 -3.4507 -2.2019
 1017SOL     OW 3366   4.081   4.647   1.688 -0.0757  0.8448 -0.1013
 1017SOL    HW1 3367   4.161   4.640   1.636 -0.7637 -0.1685 -1.0543
 1017SOL    HW2 3368   4.091   4.581   1.757 -0.2188  0.5082 -0.4016
 1018SOL     OW 3369   4.044   3.643   4.078  0.5811  0.0609 -0.1388
 1018SOL    HW1 3370   4.076   3.553   4.084  0.6568  0.1124  0.2980
 1018SOL    HW2 3371   4.033   3.659   3.984 -0.1022 -0.6387 -0.1854
 1019SOL     OW 3372   1.268   0.310   1.783 -0.2528  0.2121  0.4244
 1019SOL    HW1 3373   1.212   0.258   1.841 -1.4201  1.1802  0.2162
 1019SOL    HW2 3374   1.302   0.246   1.720 -1.8603 -0.2943  0.0085
 1020SOL     OW 3375   0.863   3.179   1.884  0.7788 -0.0753 -0.1130
 1020SOL    HW1 3376   0.931   3.117   1.912  1.0406  0.5697  0.7065
 1020SOL    HW2 3377   0.827   3.213   1.965  0.0664  0.2368 -0.5564
 1021SOL     OW 3378   0.078   2.241   2.137 -0.3393 -0.3688 -0.4783
 1021SOL    HW1 3379   0.048   2.258   2.226  1.9525  1.0686  0.1247
 1021SOL    HW2 3380   0.138   2.167   2.146  1.1586  0.7728 -0.4408
 1022SOL     OW 3381   4.241   1.869   0.247 -0.0121 -0.3247  0.1141
 1022SOL    HW1 3382   4.192   1.943   0.281  0.1510 -0.5023  0.7439
 1022SOL    HW2 3383   4.226   1.871   0.152 -1.3805 -0.4867  0.3143
 1023SOL     OW 3384   3.084   0.523   1.980  0.2706  0.3840  0.1537
 1023SOL    HW1 3385   3.077   0.590   1.913  1.2814 -0.5670 -0.9632
 1023SOL    HW2 3386   3.091   0.571   2.062 -0.5915  1.5835 -0.4509
 1024SOL     OW 3387   5.499   4.484   0.088  0.1653 -0.2054  0.0902
 1024SOL    HW1 3388   5.474   4.392   0.079  1.7326 -0.6801  0.2189
 1024SOL    HW2 3389   5.527   4.510  -0.000 -1.0574  0.4116 -0.1291
 1025SOL     OW 3390   1.858   4.710   0.671 -0.0196 -0.5360  0.6522
 1025SOL    HW1 3391   1.878   4.621   0.697  1.7996  0.0432  1.3749
 1025SOL    HW2 3392   1.824   4.751   0.751  0.2774 -0.2700  0.6439
 1026SOL     OW 3393   4.020   0.021   4.380  0.2959 -0.1024 -0.1705
 1026SOL    HW1 3394   3.993  -0.061   4.422 -1.4256  0.5844  0.1629
 1026SOL    HW2 3395   4.099  -0.002   4.332 -0.3241 -2.0511 -0.3689
 1027SOL     OW 3396   2.146   1.299   1.185  0.2793 -0.6710 -0.0423
 1027SOL    HW1 3397   2.145   1.391   1.212 -0.1365 -1.0347  1.2561
 1027SOL    HW2 3398   2.112   1.251   1.261 -0.6336 -1.7918 -1.1172
 1028SOL     OW 3399   3.812   5.322   3.584 -0.3168  0.2220 -0.0464
 1028SOL    HW1 3400   3.850   5.345   3.499 -0.7967  1.1024 -0.0347
 1028SOL    HW2 3401   3.862   5.375   3.646  0.6425 -1.0909  0.3313
 1029SOL     OW 3402   4.875   1.577   3.024  0.3125  0.8131 -0.5974
 1029SOL    HW1 3403   4.967   1.574   3.052 -0.1968 -1.1280  1.1585
 1029SOL    HW2 3404   4.856   1.488   2.996 -0.8565  1.3823 -1.7133
 1030SOL     OW 3405   1.376   1.360   3.810  0.3140  0.2031 -0.1602
 1030SOL    HW1 3406   1.398   1.284   3.864  1.9662  0.8125  0.0765
 1030SOL    HW2 3407   1.289   1.341   3.777 -0.5084 -0.5025  2.1957
 1031SOL     OW 3408   4.452   3.809   0.014  0.0713 -0.4890 -1.0826
 1031SOL    HW1 3409   4.461   3.860  -0.067  2.5934  2.3233  0.7177
 1031SOL    HW2 3410   4.360   3.820   0.040  0.1017  1.7846 -1.7127
 1032SOL     OW 3411   3.855   4.358   4.906  0.5554  0.0346  1.0779
 1032SOL    HW1 3412   3.828   4.335   4.995  0.0262  1.8430  1.4184
 1032SOL    HW2 3413   3.950   4.369   4.912  0.8944 -2.2789  0.8124
 1033SOL     OW 3414   2.039   0.284   0.802 -0.1436  0.3553  0.1342
 1033SOL    HW1 3415   1.985   0.235   0.740 -0.6045  2.3124 -1.0971
 1033SOL    HW2 3416   2.115   0.312   0.751 -0.3459  1.6813  0.5197
 1034SOL     OW 3417   3.792   1.699   1.744  0.5703  0.2265  0.6740
 1034SOL    HW1 3418   3.794   1.766   1.676 -0.0530 -2.0907 -1.7792
 1034SOL    HW2 3419   3.722   1.726   1.803  0.1247  1.5659 -0.4193
 1035SOL     OW 3420   1.079   4.694   2.130  0.5165  0.7432 -0.3075
 1035SOL    HW1 3421   1.006   4.687   2.192 -0.3473  2.0743 -1.1131
 1035SOL    HW2 3422   1.039   4.674   2.045  1.5274 -0.3402 -0.5584
 1036SOL     OW 3423   1.621   2.257   1.158 -0.0994 -0.0096  0.4042
 1036SOL    HW1 3424   1.634   2.343   1.118  1.1116 -0.7326 -0.8471
 1036SOL    HW2 3425   1.669   2.262   1.241  1.1195  0.0983 -0.2887
 1037SOL     OW 3426   3.151   1.930   3.122  0.5455 -0.3976  0.4265
 1037SOL    HW1 3427   3.078   1.959   3.176  1.2970  0.0321  1.2478
 1037SOL    HW2 3428   3.124   1.948   3.033 -1.1334 -2.0313  0.5451
 1038SOL     OW 3429   3.504   5.259   4.248 -0.3679  0.0780 -0.0267
 1038SOL    HW1 3430   3.444   5.185   4.251 -1.8698  0.8613 -3.9757
 1038SOL    HW2 3431   3.580   5.227   4.201 -0.7878  0.8131 -1.2651
 1039SOL     OW 3432   0.839   3.588   1.984 -0.1007 -0.2283 -0.3859
 1039SOL    HW1 3433   0.772   3.552   1.927 -0.2973  1.0530 -0.9906
 1039SOL    HW2 3434   0.900   3.633   1.926 -0.9537  2.1593  0.4208
 1040SOL     OW 3435   2.687   4.366   5.446  0.0452  0.4743 -0.2699
 1040SOL    HW1 3436   2.715   4.343   5.534 -0.5741 -0.5309 -0.3281
 1040SOL    HW2 3437   2.614   4.426   5.459  0.6327  1.1796 -0.1191
 1041SOL     OW 3438   2.241   4.608   5.171 -0.4584 -0.1414  0.0149
 1041SOL    HW1 3439   2.160   4.557   5.182 -0.7525  0.0939 -0.9701
 1041SOL    HW2 3440   2.255   4.649   5.257 -1.3771 -0.1934  0.1991
 1042SOL     OW 3441   2.462   1.487   3.582  0.2906  0.1556 -0.5093
 1042SOL    HW1 3442   2.511   1.511   3.660 -1.8583  0.8130  0.7194
 1042SOL    HW2 3443   2.494   1.400   3.558  2.3888  0.7711 -0.1183
 1043SOL     OW 3444   1.899   3.215   2.337 -0.0964 -0.4692  0.1971
 1043SOL    HW1 3445   1.954   3.138   2.345  0.7912  0.2148  0.9283
 1043SOL    HW2 3446   1.827   3.201   2.399 -0.3224 -1.0093 -0.1834
 1044SOL     OW 3447   1.984   4.265   1.921  0.4299  0.0916 -0.8629
 1044SOL    HW1 3448   1.931   4.287   1.997  0.2252  2.7513 -1.6647
 1044SOL    HW2 3449   2.047   4.201   1.953 -1.3680 -0.9382  0.8325
 1045SOL     OW 3450   3.940   5.477   3.382 -0.0334  0.9541 -0.3515
 1045SOL    HW1 3451   3.905   5.559   3.417 -1.7168  1.6160 -3.2756
 1045SOL    HW2 3452   4.029   5.472   3.418 -0.5161  3.0743  1.3760
 1046SOL     OW 3453   2.501   1.147   2.192 -0.1488 -0.3502  0.0715
 1046SOL    HW1 3454   2.585   1.136   2.238 -0.9499  0.9632  1.9632
 1046SOL    HW2 3455   2.526   1.175   2.104  1.4144  0.2529  0.6661
 1047SOL     OW 3456   3.888   0.713   3.864  0.3322 -0.0994  0.2893
 1047SOL    HW1 3457   3.827   0.716   3.790  0.2349  1.3816  0.3994
 1047SOL    HW2 3458   3.845   0.762   3.934  0.1272 -2.0407  1.6076
 1048SOL     OW 3459   0.062   1.905   1.207 -0.6147 -0.0289 -0.2863
 1048SOL    HW1 3460   0.106   1.847   1.144  1.3919  1.8579 -0.7311
 1048SOL    HW2 3461  -0.027   1.869   1.214  0.5991 -3.4161 -0.1687
 1049SOL     OW 3462   4.587   5.193   4.387 -0.1643  0.5762  0.3682
 1049SOL    HW1 3463   4.539   5.229   4.312 -1.3162  2.4779  1.9353
 1049SOL    HW2 3464   4.663   5.149   4.347 -0.9080  1.2072 -1.9201
 1050SOL     OW 3465   0.327   0.724   2.041 -0.3357 -0.4125 -0.0986
 1050SOL    HW1 3466   0.288   0.657   1.984  0.0661 -0.7573  0.0193
 1050SOL    HW2 3467   0.253   0.776   2.072 -0.6845 -0.9614  0.0087
 1051SOL     OW 3468   0.781   4.793   5.214 -0.6720  1.0230  0.7920
 1051SOL    HW1 3469   0.777   4.825   5.124  2.6784  1.3598  0.6349
 1051SOL    HW2 3470   0.775   4.872   5.269 -0.2226  1.1060  0.7285
 1052SOL     OW 3471   4.029   4.073   0.214 -0.2793 -0.5963  0.6122
 1052SOL    HW1 3472   4.088   4.122   0.272  0.4876 -0.7549 -0.0157
 1052SOL    HW2 3473   4.073   3.990   0.200 -1.2472 -1.2077  1.1009
 1053SOL     OW 3474   4.062   5.356   0.532 -0.1738 -0.3628 -0.3821
 1053SOL    HW1 3475   4.132   5.416   0.556 -0.0558 -0.7262  0.2110
 1053SOL    HW2 3476   4.046   5.373   0.439  1.0479 -0.6288 -0.6494
 1054SOL     OW 3477   0.700   3.271   1.479 -0.3212  0.2098  0.3345
 1054SOL    HW1 3478   0.697   3.176   1.493 -0.8226  0.4327  1.8823
 1054SOL    HW2 3479   0.613   3.294   1.447 -0.1104  0.1253 -0.3220
 1055SOL     OW 3480   3.903   4.240   5.366 -0.4341 -0.0885 -0.2870
 1055SOL    HW1 3481   3.906   4.269   5.457 -0.4858  2.3925 -1.0242
 1055SOL    HW2 3482   3.988   4.200   5.351  0.2344  1.0444  0.3761
 1056SOL     OW 3483   3.322   4.751   3.868 -0.6573  0.1450 -0.0358
 1056SOL    HW1 3484   3.315   4.691   3.794  1.2186  0.1476 -0.2556
 1056SOL    HW2 3485   3.361   4.830   3.830 -0.2807  0.3759  0.8227
 1057SOL     OW 3486   3.945   2.865   5.376 -0.5670 -0.0063 -0.1909
 1057SOL    HW1 3487   3.877   2.826   5.431  0.4144 -2.2848 -0.4673
 1057SOL    HW2 3488   3.990   2.927   5.433 -2.0401  0.6187  0.3540
 1058SOL     OW 3489   2.532   5.098   4.020 -0.5787  0.1199  0.3413
 1058SOL    HW1 3490   2.607   5.121   3.966 -1.0900  1.1841  0.0422
 1058SOL    HW2 3491   2.554   5.013   4.058 -0.6701 -1.2242 -2.4000
 1059SOL     OW 3492   5.261   2.569   1.694  0.2529  0.2334  0.4794
 1059SOL    HW1 3493   5.182   2.621   1.709 -1.4693 -1.5582 -1.7333
 1059SOL    HW2 3494   5.242   2.484   1.733  0.9100 -0.3577 -0.4410
 1060SOL     OW 3495   2.440   4.488   5.507 -0.1784 -0.3980 -0.5398
 1060SOL    HW1 3496   2.432   4.509   5.600  0.6555 -1.7839 -0.1268
 1060SOL    HW2 3497   2.378   4.547   5.464  1.1543  2.0076  0.6257
 1061SOL     OW 3498   3.044   1.216   3.014 -0.2438  0.1059 -0.0069
 1061SOL    HW1 3499   3.068   1.279   3.082  0.2648 -0.5516  0.4329
 1061SOL    HW2 3500   3.076   1.132   3.047  1.8618  0.0452 -1.9347
 1062SOL     OW 3501   5.172   5.233   4.119 -0.5129  0.2089 -0.4291
 1062SOL    HW1 3502   5.208   5.194   4.197  0.2730 -1.6339 -1.6530
 1062SOL    HW2 3503   5.178   5.328   4.134  2.2708 -0.0584  0.5477
 1063SOL     OW 3504   2.344   3.277   4.149  0.1104  0.4075 -0.2584
 1063SOL    HW1 3505   2.271   3.245   4.097 -1.3392  1.5239  1.0217
 1063SOL    HW2 3506   2.310   3.355   4.193  1.0373 -0.8400  2.9013
 1064SOL     OW 3507   3.936   0.278   4.460 -0.2813 -0.2704  0.0997
 1064SOL    HW1 3508   3.852   0.301   4.420 -1.9160 -1.3622  2.5937
 1064SOL    HW2 3509   3.943   0.183   4.450  0.9932 -0.1169 -0.6232
 1065SOL     OW 3510   3.462   1.944   1.700  0.1096  0.2296  0.5981
 1065SOL    HW1 3511   3.536   2.000   1.677  0.6407 -0.8586 -0.4400
 1065SOL    HW2 3512   3.495   1.855   1.692 -1.9585 -0.4053 -2.4535
 1066SOL     OW 3513   5.160   1.788   4.035  0.0571  0.6681 -0.6363
 1066SOL    HW1 3514   5.144   1.708   4.086 -0.8728  0.5050 -1.1618
 1066SOL    HW2 3515   5.211   1.757   3.960 -0.9069  0.4291 -1.2095
 1067SOL     OW 3516   2.450   4.382   0.928 -0.3715  0.9843  0.0348
 1067SOL    HW1 3517   2.461   4.436   0.850 -1.3496  1.2269  0.0543
 1067SOL    HW2 3518   2.405   4.304   0.896  0.1552  0.6121  0.1830
 1068SOL     OW 3519   3.550   3.391   2.541 -0.5340  0.5301  0.0976
 1068SOL    HW1 3520   3.480   3.455   2.554  1.5289  2.7708  0.7545
 1068SOL    HW2 3521   3.595   3.386   2.625  1.4151  0.8149 -0.8830
 1069SOL     OW 3522   1.603   2.614   3.151 -0.1848 -0.1768  0.3570
 1069SOL    HW1 3523   1.583   2.520   3.155 -2.9691  0.3353  1.1989
 1069SOL    HW2 3524   1.621   2.639   3.241 -0.0100  0.1791  0.2252
 1070SOL     OW 3525   1.944   3.601   5.524 -0.0631 -0.1331 -0.2227
 1070SOL    HW1 3526   1.944   3.508   5.501 -0.0395  0.1162 -1.3105
 1070SOL    HW2 3527   2.002   3.607   5.599  0.9624 -0.8219 -0.9317
 1071SOL     OW 3528   1.804   0.856   5.191 -0.1519  0.0978  0.5127
 1071SOL    HW1 3529   1.716   0.850   5.154  0.3450  1.6825 -1.0355
 1071SOL    HW2 3530   1.862   0.825   5.121  0.6360  0.6334  0.9115
 1072SOL     OW 3531   2.355   4.334   2.118 -0.1268 -0.0649 -0.6117
 1072SOL    HW1 3532   2.262   4.351   2.133  0.3158  0.5466  1.7992
 1072SOL    HW2 3533   2.366   4.241   2.136 -0.4624 -0.4585 -2.2500
 1073SOL     OW 3534   3.999   1.203   3.537  0.2065 -0.2549  0.1520
 1073SOL    HW1 3535   3.906   1.215   3.560  0.1041 -1.1193  0.2454
 1073SOL    HW2 3536   4.035   1.291   3.536 -1.0109  0.2871 -1.6246
 1074SOL     OW 3537   3.346   1.883   1.251 -0.4043 -0.7383 -0.6070
 1074SOL    HW1 3538   3.255   1.894   1.224 -0.1884 -2.1199 -2.0359
 1074SOL    HW2 3539   3.342   1.869   1.346 -1.3656  2.2128 -0.0938
 1075SOL     OW 3540   4.442   0.681   0.496 -0.1362  0.2248 -0.1961
 1075SOL    HW1 3541   4.459   0.704   0.405  0.4462  0.4020 -0.0444
 1075SOL    HW2 3542   4.523   0.641   0.527 -0.7792 -1.1136 -0.1486
 1076SOL     OW 3543   4.668   3.899   4.674 -0.5889  0.1685 -0.1511
 1076SOL    HW1 3544   4.670   3.946   4.591  1.1893  1.9878  0.8272
 1076SOL    HW2 3545   4.758   3.868   4.687 -0.4962  1.0368  1.6394
 1077SOL     OW 3546   2.371   1.827   2.158  0.0979  0.8810  0.1143
 1077SOL    HW1 3547   2.281   1.857   2.148  0.4592  2.0709  0.2431
 1077SOL    HW2 3548   2.409   1.887   2.223  0.8279  0.0555  0.4756
 1078SOL     OW 3549   0.482   0.063   5.416  0.2997 -0.0069 -0.0683
 1078SOL    HW1 3550   0.451   0.145   5.455  0.2930 -0.4023  0.7787
 1078SOL    HW2 3551   0.406   0.027   5.371  0.4960  0.8193 -1.1156
 1079SOL     OW 3552   2.455   2.887   5.281  0.5660 -0.3640  0.0968
 1079SOL    HW1 3553   2.506   2.940   5.343  2.3428 -0.9800 -0.7589
 1079SOL    HW2 3554   2.504   2.892   5.199 -2.0576  0.9586 -1.5166
 1080SOL     OW 3555   0.928   4.265   4.749 -0.1754 -0.0091  0.1006
 1080SOL    HW1 3556   0.849   4.211   4.758 -0.2058 -0.0339 -0.2899
 1080SOL    HW2 3557   0.977   4.248   4.829  0.1505 -1.1834 -0.3233
 1081SOL     OW 3558   4.230   1.490   0.556 -0.2570  0.1160  0.3099
 1081SOL    HW1 3559   4.287   1.559   0.523 -1.7903  1.5138  0.4331
 1081SOL    HW2 3560   4.155   1.537   0.594 -2.8008 -1.5963 -2.1879
 1082SOL     OW 3561   0.266   5.182   2.793 -0.5004 -0.2879  0.3885
 1082SOL    HW1 3562   0.228   5.099   2.822 -1.6791  0.6470  1.6643
 1082SOL    HW2 3563   0.351   5.186   2.835 -0.9368 -0.3255  1.2860
 1083SOL     OW 3564   1.174   4.345   2.496 -0.4180  0.1789 -0.7319
 1083SOL    HW1 3565   1.109   4.336   2.566 -0.4713 -0.0317 -0.8052
 1083SOL    HW2 3566   1.258   4.331   2.539 -0.5429 -1.5488 -0.9764
 1084SOL     OW 3567   5.378   3.665   2.929  0.1719 -0.1216  0.0828
 1084SOL    HW1 3568   5.315   3.679   3.000  0.0358 -1.3112  0.2287
 1084SOL    HW2 3569   5.461   3.649   2.975  0.4292  0.6911 -0.0861
 1085SOL     OW 3570   5.019   3.963   3.303  0.1723 -0.5554  0.0950
 1085SOL    HW1 3571   5.036   4.016   3.225 -0.4250  0.0373  0.3581
 1085SOL    HW2 3572   5.073   4.003   3.371  0.9193 -1.2513 -0.0712
 1086SOL     OW 3573   2.412   5.136   1.821 -0.0004  0.1149 -0.6368
 1086SOL    HW1 3574   2.462   5.064   1.859  1.7374  1.4381 -0.2947
 1086SOL    HW2 3575   2.463   5.215   1.841 -0.7619  1.2437 -2.7954
 1087SOL     OW 3576   2.962   4.170   1.814 -0.4384  0.0864 -0.0351
 1087SOL    HW1 3577   2.885   4.207   1.858  0.5338 -0.3623  2.2225
 1087SOL    HW2 3578   3.024   4.243   1.809 -0.3918  0.0302 -0.2577
 1088SOL     OW 3579   4.573   2.147   5.440  0.5041  0.0082 -0.2229
 1088SOL    HW1 3580   4.634   2.142   5.513  1.5362  0.8041 -1.0004
 1088SOL    HW2 3581   4.518   2.069   5.449  0.7235 -0.0086  1.2771
 1089SOL     OW 3582   2.334   3.976   5.141 -0.3222 -0.1631 -0.0101
 1089SOL    HW1 3583   2.406   3.931   5.185  0.1849  2.5361  2.1872
 1089SOL    HW2 3584   2.301   4.038   5.206 -3.4927 -0.0352 -1.5501
 1090SOL     OW 3585   1.704   1.371   2.625 -0.0882  0.1347 -0.3167
 1090SOL    HW1 3586   1.698   1.277   2.608  1.8386  0.5092 -4.4240
 1090SOL    HW2 3587   1.789   1.382   2.669  0.5659 -0.0059 -1.4817
 1091SOL     OW 3588   3.401   4.224   4.656 -0.2786 -0.5422  0.0027
 1091SOL    HW1 3589   3.422   4.156   4.592  1.4887  0.0331 -0.0647
 1091SOL    HW2 3590   3.485   4.266   4.676 -1.0093  0.2461  1.6154
 1092SOL     OW 3591   4.728   1.429   5.214  0.0539  0.2670 -0.4902
 1092SOL    HW1 3592   4.702   1.371   5.142 -0.6259  0.1231 -0.1348
 1092SOL    HW2 3593   4.650   1.482   5.231 -0.7517 -1.5678  1.9794
 1093SOL     OW 3594   1.336   0.074   0.630  0.2376 -0.5463 -0.0023
 1093SOL    HW1 3595   1.374  -0.001   0.586 -0.2870 -0.1634 -1.1326
 1093SOL    HW2 3596   1.408   0.137   0.638  0.1953 -0.3847 -0.8584
 1094SOL     OW 3597   5.061   2.466   2.776  0.1804 -0.3961 -0.3411
 1094SOL    HW1 3598   5.068   2.553   2.815 -0.1259 -0.8149  0.6762
 1094SOL    HW2 3599   5.095   2.477   2.687  1.9717  0.3503  0.3829
 1095SOL     OW 3600   0.014   5.282   3.957  0.1625 -0.6460 -0.1476
 1095SOL    HW1 3601  -0.060   5.303   3.900  0.6140  1.0069 -0.1622
 1095SOL    HW2 3602   0.045   5.366   3.988  2.3962 -1.2702 -0.5642
 1096SOL     OW 3603   0.098   4.841   1.125  0.2277 -0.1731  0.1819
 1096SOL    HW1 3604   0.032   4.893   1.079  0.5774  2.0309  1.9574
 1096SOL    HW2 3605   0.161   4.816   1.057 -2.0198 -1.7637 -1.4183
 1097SOL     OW 3606   1.183   4.515   4.876  0.1886  0.3380 -0.3247
 1097SOL    HW1 3607   1.233   4.484   4.801  0.2414 -0.7966  0.1539
 1097SOL    HW2 3608   1.162   4.606   4.856  0.2915  0.0784 -1.6597
 1098SOL     OW 3609   3.263   5.185   4.401  0.9367 -0.0042 -0.0312
 1098SOL    HW1 3610   3.337   5.124   4.411  0.7565 -0.3466 -0.7477
 1098SOL    HW2 3611   3.190   5.142   4.446  0.8940 -0.1738 -0.2590
 1099SOL     OW 3612   4.543   5.001   4.859 -0.0315  0.2506  0.3970
 1099SOL    HW1 3613   4.531   5.069   4.926  1.3545  0.6692  0.2461
 1099SOL    HW2 3614   4.463   5.005   4.807 -0.3186  1.2086  0.8855
 1100SOL     OW 3615   3.134   4.999   2.728 -0.5489  0.1553 -0.5998
 1100SOL    HW1 3616   3.067   4.964   2.668 -1.6896  1.4563 -0.1493
 1100SOL    HW2 3617   3.149   4.928   2.791 -0.3035 -0.7431 -1.6435
 1101SOL     OW 3618   3.458   1.589   2.135 -0.1597 -0.4535  0.1376
 1101SOL    HW1 3619   3.385   1.607   2.074  0.9885 -0.2757 -1.2357
 1101SOL    HW2 3620   3.423   1.614   2.221 -0.5477  3.3746 -0.9088
 1102SOL     OW 3621   3.332   1.006   2.125 -0.3555 -0.7526  0.3345
 1102SOL    HW1 3622   3.392   0.949   2.174  0.4963 -0.6165 -0.5261
 1102SOL    HW2 3623   3.259   1.020   2.185 -0.0678 -1.8536  0.9832
 1103SOL     OW 3624   2.213   1.945   3.350 -0.3934  0.1576  0.2041
 1103SOL    HW1 3625   2.211   1.887   3.274 -1.4964 -0.1276  0.4276
 1103SOL    HW2 3626   2.251   1.892   3.420 -1.3402 -0.3047  0.3905
 1104SOL     OW 3627   0.212   5.175   0.331 -0.1372  0.4381 -0.0898
 1104SOL    HW1 3628   0.222   5.080   0.322 -1.6229  0.2360  0.1619
 1104SOL    HW2 3629   0.234   5.210   0.245 -2.7624 -0.4570 -1.2229
 1105SOL     OW 3630   3.036   2.442   2.484 -0.0474 -0.6063  0.0230
 1105SOL    HW1 3631   2.979   2.367   2.499 -0.6645 -0.2139 -0.3174
 1105SOL    HW2 3632   3.059   2.473   2.572  1.8115 -2.3601  0.2164
 1106SOL     OW 3633   4.628   3.355   4.151  0.5524  0.4206 -0.0875
 1106SOL    HW1 3634   4.645   3.436   4.103 -0.3101  0.1635 -0.8525
 1106SOL    HW2 3635   4.546   3.322   4.113  0.8708 -0.7777  0.2558
 1107SOL     OW 3636   2.413   4.270   3.798  0.0774  0.1206  0.2372
 1107SOL    HW1 3637   2.396   4.257   3.891 -0.6788  0.5547  0.1664
 1107SOL    HW2 3638   2.393   4.362   3.782 -1.4587 -0.3313 -0.6848
 1108SOL     OW 3639   4.842   3.373   4.486 -0.3144  0.2815 -0.5063
 1108SOL    HW1 3640   4.890   3.310   4.540 -1.8420  0.7976  1.5855
 1108SOL    HW2 3641   4.792   3.320   4.425  0.6384 -0.3809 -0.7344
 1109SOL     OW 3642   3.053   0.384   2.709 -0.2549 -0.0807  0.2580
 1109SOL    HW1 3643   3.044   0.328   2.786 -1.1181 -0.0485  0.1832
 1109SOL    HW2 3644   3.036   0.325   2.635  1.9031 -0.4464 -0.0239
 1110SOL     OW 3645   1.279   5.385   0.276 -0.3160 -0.3786 -0.4165
 1110SOL    HW1 3646   1.320   5.322   0.216  0.9745  0.7042 -0.7345
 1110SOL    HW2 3647   1.198   5.410   0.231  0.7557  0.6199 -1.9225
 1111SOL     OW 3648   3.910   1.152   5.321  0.1869  0.2983 -0.4865
 1111SOL    HW1 3649   3.824   1.127   5.354 -0.0913  1.7917 -0.0086
 1111SOL    HW2 3650   3.972   1.106   5.377 -0.2983 -0.0448 -0.2248
 1112SOL     OW 3651   1.693   3.757   5.395 -0.3593 -0.8346  0.3695
 1112SOL    HW1 3652   1.758   3.714   5.449  0.9749  0.9670  0.3083
 1112SOL    HW2 3653   1.692   3.708   5.313 -0.2659 -1.8262  0.9543
 1113SOL     OW 3654   4.867   2.287   2.002 -0.3352  0.2528 -0.3912
 1113SOL    HW1 3655   4.911   2.204   2.020 -1.5011 -0.9147 -2.5344
 1113SOL    HW2 3656   4.825   2.311   2.085  2.3280  0.2437  1.0774
 1114SOL     OW 3657   4.524   2.929   2.139 -0.1820  0.3602  0.5299
 1114SOL    HW1 3658   4.435   2.892   2.136 -0.1224  0.1570  1.2981
 1114SOL    HW2 3659   4.548   2.939   2.046  0.1050 -2.2492  0.2414
 1115SOL     OW 3660   0.867   4.535   2.870 -0.0904  0.2798 -0.1952
 1115SOL    HW1 3661   0.810   4.609   2.893 -1.3251 -0.9645  0.9725
 1115SOL    HW2 3662   0.900   4.503   2.954 -0.4384 -1.1369 -0.5712
 1116SOL     OW 3663   0.210   2.965   5.243 -0.0982  0.0025  0.6901
 1116SOL    HW1 3664   0.303   2.981   5.259 -0.1220 -0.8460  1.7515
 1116SOL    HW2 3665   0.173   3.052   5.231  0.9761  0.3116 -0.6815
 1117SOL     OW 3666   3.691   5.077   5.294 -0.1655 -0.0115  0.4653
 1117SOL    HW1 3667   3.734   5.079   5.380  1.5583 -0.4346 -0.3431
 1117SOL    HW2 3668   3.658   4.987   5.286 -0.5818  0.1102  0.7966
 1118SOL     OW 3669   3.222   1.056   4.468  0.0326 -0.1168  0.4581
 1118SOL    HW1 3670   3.251   0.976   4.511 -0.9761 -1.4243 -1.2058
 1118SOL    HW2 3671   3.127   1.052   4.471 -0.0604  0.0410 -1.3404
 1119SOL     OW 3672   3.446   4.564   4.173 -0.2566 -0.1566  0.2459
 1119SOL    HW1 3673   3.422   4.495   4.235  0.7861 -1.6958 -0.9862
 1119SOL    HW2 3674   3.437   4.645   4.223 -0.5080 -1.2456  2.0691
 1120SOL     OW 3675   4.203   1.196   3.221 -0.0538  0.0119 -0.3945
 1120SOL    HW1 3676   4.224   1.225   3.310  0.0524  0.8480 -0.6859
 1120SOL    HW2 3677   4.166   1.273   3.179 -2.5718 -1.0123 -0.2939
 1121SOL     OW 3678   0.498   2.739   3.233  0.1448 -0.2930  0.2993
 1121SOL    HW1 3679   0.425   2.714   3.289 -0.7291 -1.5134 -1.2960
 1121SOL    HW2 3680   0.463   2.810   3.179 -0.3500 -1.6906 -1.3228
 1122SOL     OW 3681   3.259   4.099   5.557  0.4422 -0.0170  0.1405
 1122SOL    HW1 3682   3.342   4.135   5.590 -0.0407  1.7385 -0.4266
 1122SOL    HW2 3683   3.203   4.093   5.634  0.9977 -0.9650  0.4842
 1123SOL     OW 3684   4.799   5.350   1.744 -0.2388 -0.0468  0.1922
 1123SOL    HW1 3685   4.879   5.297   1.735  0.3062  0.9202 -0.9164
 1123SOL    HW2 3686   4.733   5.303   1.692  0.7011  1.1752 -2.2719
 1124SOL     OW 3687   3.552   2.564   4.976 -0.6754  0.3790  0.0807
 1124SOL    HW1 3688   3.569   2.596   5.065 -1.5737  1.7111 -0.1909
 1124SOL    HW2 3689   3.486   2.625   4.941  0.4303  0.5370 -1.8743
 1125SOL     OW 3690   1.700   5.037   4.254 -0.1445  0.9664  0.0610
 1125SOL    HW1 3691   1.783   4.990   4.254 -1.4945 -1.6103 -0.1264
 1125SOL    HW2 3692   1.675   5.043   4.162 -1.0258 -0.0261  0.2098
 1126SOL     OW 3693   4.340   2.724   4.373  0.2343  0.0340  0.0361
 1126SOL    HW1 3694   4.309   2.635   4.353  0.1918 -0.0762  0.5826
 1126SOL    HW2 3695   4.435   2.719   4.364  0.1638  0.1722 -0.8597
 1127SOL     OW 3696   1.347   2.699   2.607  0.2904  0.3478  0.0271
 1127SOL    HW1 3697   1.272   2.685   2.665 -0.0319  2.3489  0.1520
 1127SOL    HW2 3698   1.312   2.751   2.534  1.4756  1.0514 -0.0642
 1128SOL     OW 3699   1.212   3.127   0.406  0.1184 -0.4828  0.5719
 1128SOL    HW1 3700   1.236   3.090   0.491 -0.1120 -2.0168  0.0028
 1128SOL    HW2 3701   1.120   3.151   0.416  0.1524 -0.4485  0.8199
 1129SOL     OW 3702   5.147   2.168   3.474  0.1099  0.4917  0.3731
 1129SOL    HW1 3703   5.180   2.197   3.559 -0.6408  0.4967  0.6639
 1129SOL    HW2 3704   5.068   2.119   3.494 -0.1538  0.6181 -0.3403
 1130SOL     OW 3705   4.965   5.383   2.461 -0.1356 -0.0788  0.1405
 1130SOL    HW1 3706   4.926   5.305   2.421 -0.5514 -0.6979  1.6974
 1130SOL    HW2 3707   4.917   5.456   2.422  0.3036 -0.5543 -1.3913
 1131SOL     OW 3708   3.209   0.946   0.833  0.6844  0.3321  0.0779
 1131SOL    HW1 3709   3.116   0.933   0.851  0.2245 -0.6157 -2.6031
 1131SOL    HW2 3710   3.253   0.905   0.908 -1.0466 -1.1534  0.3713
 1132SOL     OW 3711   2.712   1.419   2.120 -0.7380  0.6850  0.2418
 1132SOL    HW1 3712   2.732   1.343   2.174 -1.8658  0.4399  0.3445
 1132SOL    HW2 3713   2.640   1.463   2.166 -0.4608  1.5053 -0.0986
 1133SOL     OW 3714   4.461   2.585   5.165  1.1027  0.0511  0.2334
 1133SOL    HW1 3715   4.426   2.543   5.243 -0.3331 -1.4273 -1.1389
 1133SOL    HW2 3716   4.551   2.552   5.158  0.5104 -1.6112  0.0552
 1134SOL     OW 3717   1.069   5.391   3.348  0.3702 -0.7576 -0.2090
 1134SOL    HW1 3718   1.141   5.412   3.408 -1.4756  0.1880  1.7811
 1134SOL    HW2 3719   1.046   5.475   3.308 -0.7410 -0.6943  0.5124
 1135SOL     OW 3720   0.636   0.667   0.957  0.2653  0.1613  0.5424
 1135SOL    HW1 3721   0.624   0.729   0.885 -0.3334  1.1393  1.4568
 1135SOL    HW2 3722   0.658   0.722   1.032 -0.9506 -0.6696  1.5387
 1136SOL     OW 3723   1.376   5.198   3.087 -0.1047 -0.1339  0.6718
 1136SOL    HW1 3724   1.329   5.163   3.163 -0.4656 -1.5109 -0.1393
 1136SOL    HW2 3725   1.311   5.198   3.017  0.7711 -0.9407 -0.1753
 1137SOL     OW 3726   0.324   1.702   1.230 -0.2496  0.1323  0.4118
 1137SOL    HW1 3727   0.316   1.768   1.160  1.7625  0.0880  0.0853
 1137SOL    HW2 3728   0.314   1.752   1.311  2.6586  1.1961  0.2284
 1138SOL     OW 3729   1.036   0.490   3.139 -0.3453 -0.2637  0.1076
 1138SOL    HW1 3730   1.059   0.543   3.216 -2.7541  0.7536  0.2392
 1138SOL    HW2 3731   1.039   0.552   3.066 -0.7856 -0.5303 -0.1411
 1139SOL     OW 3732   4.634   1.728   1.750 -0.3087  0.6529 -0.0357
 1139SOL    HW1 3733   4.597   1.734   1.662 -1.0545  0.5184  0.2632
 1139SOL    HW2 3734   4.617   1.638   1.777 -0.9523  0.9608  0.6194
 1140SOL     OW 3735   1.859   4.420   1.543 -0.6233 -0.0951  0.2162
 1140SOL    HW1 3736   1.819   4.482   1.481  0.2468  1.3079  1.0140
 1140SOL    HW2 3737   1.913   4.363   1.488 -0.6386  0.4998 -0.4372
 1141SOL     OW 3738   4.488   2.455   2.718  0.2565  0.1510  0.0545
 1141SOL    HW1 3739   4.405   2.416   2.694  1.0137 -1.9832  0.6502
 1141SOL    HW2 3740   4.480   2.475   2.812  0.2337  0.4614 -0.0118
 1142SOL     OW 3741   4.012   4.001   1.026 -0.4083 -0.6459  0.6020
 1142SOL    HW1 3742   4.017   4.011   0.931 -2.0291 -0.2052  0.5425
 1142SOL    HW2 3743   4.008   4.090   1.060  1.8432 -0.7232  1.2440
 1143SOL     OW 3744   0.906   3.299   0.726 -0.6503 -0.7836 -0.2991
 1143SOL    HW1 3745   0.944   3.321   0.640  2.0895 -2.2274  0.4179
 1143SOL    HW2 3746   0.897   3.204   0.724 -1.4197 -0.7361  0.7013
 1144SOL     OW 3747   4.840   2.662   0.702  0.1736  0.0860  0.2470
 1144SOL    HW1 3748   4.926   2.702   0.696  1.0722 -1.6529  0.8600
 1144SOL    HW2 3749   4.857   2.568   0.714 -1.8152 -0.5942 -1.5160
 1145SOL     OW 3750   4.571   4.169   2.566  0.4081 -0.0261  0.1764
 1145SOL    HW1 3751   4.497   4.123   2.606 -0.5560  0.7907 -0.6071
 1145SOL    HW2 3752   4.606   4.224   2.637  0.8845 -1.1107  0.8089
 1146SOL     OW 3753   0.000   4.216   3.704  0.2579  0.5738  0.3572
 1146SOL    HW1 3754  -0.047   4.141   3.740 -0.2074  0.5500 -0.2852
 1146SOL    HW2 3755  -0.057   4.250   3.636  1.0757  0.6629 -0.3060
 1147SOL     OW 3756   2.560   0.682   0.279  0.3551 -0.7898  0.2455
 1147SOL    HW1 3757   2.470   0.651   0.281  0.3272 -0.6621  1.5128
 1147SOL    HW2 3758   2.556   0.765   0.232 -0.0395 -1.2108 -0.4772
 1148SOL     OW 3759   1.835   0.910   3.390 -0.5028  0.4147 -0.1105
 1148SOL    HW1 3760   1.900   0.981   3.393  0.5166 -0.3965 -1.5545
 1148SOL    HW2 3761   1.785   0.921   3.471 -0.0600  2.4561 -0.0354
 1149SOL     OW 3762   2.935   0.108   3.296  0.3600 -0.3765 -0.4567
 1149SOL    HW1 3763   3.028   0.094   3.282  0.3197 -0.1266 -1.0035
 1149SOL    HW2 3764   2.905   0.153   3.217 -0.0405  0.3652  0.1010
 1150SOL     OW 3765   0.999   0.086   2.239 -0.0353  0.4679  0.4386
 1150SOL    HW1 3766   0.951   0.047   2.166  1.1423  1.7009 -1.0448
 1150SOL    HW2 3767   1.003   0.179   2.219  2.9344  0.4495  0.4896
 1151SOL     OW 3768   4.021   0.269   3.218  0.2170  0.2298 -0.0266
 1151SOL    HW1 3769   3.960   0.225   3.277 -0.2655  1.6480  0.5787
 1151SOL    HW2 3770   3.991   0.246   3.130 -0.4769 -0.0420  0.2757
 1152SOL     OW 3771   1.603   3.137   2.971  0.2127  0.1961  0.0790
 1152SOL    HW1 3772   1.596   3.043   2.987 -2.3027  0.4064  0.6441
 1152SOL    HW2 3773   1.572   3.177   3.053  0.6700  1.5044 -0.3670
 1153SOL     OW 3774   2.182   0.534   4.193 -0.1762  0.5037 -0.1419
 1153SOL    HW1 3775   2.277   0.542   4.200 -0.2559  0.9270  0.5018
 1153SOL    HW2 3776   2.148   0.614   4.233 -0.8182  0.0117  0.3139
 1154SOL     OW 3777   4.026   3.215   0.003 -0.0506  0.1884  0.0667
 1154SOL    HW1 3778   4.058   3.136   0.047  2.8000  1.0621 -0.2635
 1154SOL    HW2 3779   4.084   3.225  -0.073  1.8810  4.2840  1.8036
 1155SOL     OW 3780   1.847   3.142   4.782 -0.1863  0.2660  0.4841
 1155SOL    HW1 3781   1.784   3.203   4.744  0.1850 -0.5618 -1.6009
 1155SOL    HW2 3782   1.860   3.075   4.714  1.4478 -0.6557  1.6269
 1156SOL     OW 3783   1.529   3.055   4.805 -0.3032  0.3749  0.0751
 1156SOL    HW1 3784   1.517   3.135   4.755  0.9983  0.5067 -0.0835
 1156SOL    HW2 3785   1.624   3.051   4.821 -0.3798 -0.9492  0.3649
 1157SOL     OW 3786   5.302   4.554   4.208 -0.2948 -0.4265 -0.5018
 1157SOL    HW1 3787   5.247   4.625   4.240 -0.4456 -0.5204 -0.5478
 1157SOL    HW2 3788   5.370   4.543   4.275 -0.8750 -0.9252  0.0165
 1158SOL     OW 3789   2.133   3.852   3.906 -0.1378 -0.0278  0.0656
 1158SOL    HW1 3790   2.046   3.876   3.877 -0.0820  0.3699  0.2252
 1158SOL    HW2 3791   2.192   3.896   3.845 -0.0483 -1.9596 -1.3666
 1159SOL     OW 3792   0.421   0.731   2.846 -0.3142  0.1354 -0.4590
 1159SOL    HW1 3793   0.342   0.762   2.802  1.0289  0.5251 -2.7285
 1159SOL    HW2 3794   0.431   0.640   2.818 -0.0288  0.0447 -0.0711
 1160SOL     OW 3795   3.106   0.493   4.096 -0.2067  0.4837  0.4268
 1160SOL    HW1 3796   3.022   0.527   4.129  0.0132  0.8054  0.6615
 1160SOL    HW2 3797   3.151   0.461   4.174 -0.0486  0.4439  0.3189
 1161SOL     OW 3798   0.367   2.267   2.052 -0.0397  0.2172 -0.2406
 1161SOL    HW1 3799   0.446   2.221   2.080 -0.0400  1.4592  2.0623
 1161SOL    HW2 3800   0.295   2.212   2.083 -0.0335  1.1855  1.6519
 1162SOL     OW 3801   1.611   4.103   4.509 -0.4403 -0.1064 -0.0039
 1162SOL    HW1 3802   1.532   4.106   4.455 -0.1543  0.1169 -0.4241
 1162SOL    HW2 3803   1.589   4.047   4.583 -0.8685 -0.3530 -0.3178
 1163SOL     OW 3804   0.836   2.964   3.695  0.6033 -0.1234 -0.3043
 1163SOL    HW1 3805   0.923   2.925   3.691  1.6307  2.0489 -0.7423
 1163SOL    HW2 3806   0.819   2.993   3.605 -0.7208 -0.7799 -0.2839
 1164SOL     OW 3807   4.592   4.401   3.498  0.2467  0.3874 -0.1651
 1164SOL    HW1 3808   4.662   4.349   3.459  0.6735  1.7575 -1.3179
 1164SOL    HW2 3809   4.531   4.415   3.426 -0.2241  0.8709  0.3251
 1165SOL     OW 3810   3.509   4.431   2.749 -0.5290 -0.3043  0.4585
 1165SOL    HW1 3811   3.485   4.425   2.842  0.3828  1.7815  0.8983
 1165SOL    HW2 3812   3.604   4.440   2.750 -0.4870 -0.5055 -0.7101
 1166SOL     OW 3813   2.316   4.293   1.239  0.4924  0.0840  0.2568
 1166SOL    HW1 3814   2.232   4.282   1.194  0.3017  0.6558  0.4537
 1166SOL    HW2 3815   2.366   4.214   1.218  0.1060 -0.0172 -0.3022
 1167SOL     OW 3816   5.548   0.894   4.290 -0.2944  0.4664  0.0133
 1167SOL    HW1 3817   5.634   0.856   4.273  0.2517  0.9711  1.5209
 1167SOL    HW2 3818   5.500   0.825   4.337 -0.3500  0.5655  0.1028
 1168SOL     OW 3819   1.896   0.993   4.808  0.1655 -0.6301 -0.3496
 1168SOL    HW1 3820   1.964   1.015   4.744  0.1728 -1.1345 -0.5210
 1168SOL    HW2 3821   1.848   1.075   4.821  1.2266 -0.0899  0.2813
 1169SOL     OW 3822   4.366   0.210   4.946 -0.5464  0.2081 -0.3774
 1169SOL    HW1 3823   4.401   0.237   4.861  0.2677 -0.7224 -0.3583
 1169SOL    HW2 3824   4.273   0.233   4.942 -0.8434 -1.0865 -2.0624
 1170SOL     OW 3825   3.139   1.520   5.553 -0.1343  0.4246  0.0605
 1170SOL    HW1 3826   3.195   1.457   5.598 -0.5418  0.3323  0.4505
 1170SOL    HW2 3827   3.195   1.597   5.540  0.2214  0.1611  0.0196
 1171SOL     OW 3828   1.913   5.167   1.845  0.2159  1.0943  0.0972
 1171SOL    HW1 3829   1.980   5.152   1.779 -0.8996  0.6423 -0.9788
 1171SOL    HW2 3830   1.836   5.196   1.795 -0.5998  0.9218  1.2100
 1172SOL     OW 3831   3.323   5.196   5.272  0.3257 -0.5777  0.1377
 1172SOL    HW1 3832   3.302   5.125   5.333 -1.4585  0.5989  0.9936
 1172SOL    HW2 3833   3.283   5.168   5.189 -1.2901 -0.1396  0.7416
 1173SOL     OW 3834   3.001   1.296   0.068 -0.0376  0.0964  0.1255
 1173SOL    HW1 3835   3.056   1.365   0.033 -1.6443  1.6997  0.5796
 1173SOL    HW2 3836   2.962   1.254  -0.008  0.2040  0.3415 -0.1325
 1174SOL     OW 3837   2.105   5.161   5.046  0.4293 -0.1126 -0.3551
 1174SOL    HW1 3838   2.054   5.085   5.017 -0.7751  0.5712 -0.1302
 1174SOL    HW2 3839   2.105   5.220   4.971  0.9994 -0.1511 -0.3891
 1175SOL     OW 3840   1.913   3.986   3.305  0.5839 -0.4136  0.4006
 1175SOL    HW1 3841   1.991   4.005   3.357  1.0194 -1.5140  0.1596
 1175SOL    HW2 3842   1.893   3.895   3.324  0.1325 -0.5223 -0.5669
 1176SOL     OW 3843   2.871   4.955   0.427  0.5142 -0.0721  0.0077
 1176SOL    HW1 3844   2.859   4.911   0.511  0.2726 -0.9477 -0.4705
 1176SOL    HW2 3845   2.792   5.008   0.416  0.9882  0.8108  0.7713
 1177SOL     OW 3846   2.858   1.849   0.948  0.4838  0.5859 -0.0885
 1177SOL    HW1 3847   2.909   1.769   0.953 -1.2062 -0.5098  0.5867
 1177SOL    HW2 3848   2.868   1.890   1.035 -0.1632  0.1102  0.2174
 1178SOL     OW 3849   3.857   3.163   5.324  0.2432 -0.3626  0.6014
 1178SOL    HW1 3850   3.913   3.188   5.397 -0.6305  2.0329  0.5674
 1178SOL    HW2 3851   3.911   3.179   5.246  1.4689 -3.7115  0.6266
 1179SOL     OW 3852   4.986   5.560   1.506 -0.3252 -0.1660  0.3585
 1179SOL    HW1 3853   5.002   5.482   1.454  0.1837  0.1014  0.1062
 1179SOL    HW2 3854   5.069   5.608   1.504 -1.2256  1.4256 -1.2764
 1180SOL     OW 3855   1.135   0.394   0.344 -0.8700  0.1733  0.2695
 1180SOL    HW1 3856   1.222   0.358   0.324 -0.8940 -0.4500  1.2361
 1180SOL    HW2 3857   1.103   0.340   0.416 -1.3825  1.4559  1.0232
 1181SOL     OW 3858   4.743   0.556   1.481  0.3959 -0.8107 -0.0955
 1181SOL    HW1 3859   4.723   0.601   1.563  0.4783 -0.9094 -0.0225
 1181SOL    HW2 3860   4.766   0.467   1.506  0.4351 -0.8376 -0.2240
 1182SOL     OW 3861   3.461   3.714   3.403 -0.1304 -0.1662 -0.1343
 1182SOL    HW1 3862   3.448   3.654   3.477  1.9541  0.6918  1.0189
 1182SOL    HW2 3863   3.555   3.718   3.392 -0.2551  2.0967 -0.8384
 1183SOL     OW 3864   2.117   0.569   1.182  0.3020 -0.7916 -0.1464
 1183SOL    HW1 3865   2.194   0.625   1.171  0.0549 -0.2759  0.5988
 1183SOL    HW2 3866   2.118   0.545   1.275 -1.1276  0.3176  0.2030
 1184SOL     OW 3867   5.248   5.462   5.156 -0.5555  0.2219  0.1644
 1184SOL    HW1 3868   5.184   5.532   5.162 -0.1130  0.5836  0.8168
 1184SOL    HW2 3869   5.304   5.473   5.233  0.2450 -0.1302 -0.3445
 1185SOL     OW 3870   1.846   3.486   0.395  0.3664 -0.2151 -0.0716
 1185SOL    HW1 3871   1.763   3.459   0.434 -0.7065 -0.2162 -2.2277
 1185SOL    HW2 3872   1.847   3.581   0.403 -0.0104 -0.1887 -0.3288
 1186SOL     OW 3873   2.733   1.803   4.519  0.4800 -0.1180 -0.1801
 1186SOL    HW1 3874   2.804   1.792   4.583 -1.5608 -0.1341  2.2747
 1186SOL    HW2 3875   2.733   1.722   4.468 -0.3563 -2.0681  2.6535
 1187SOL     OW 3876   1.093   4.460   0.904 -0.8011  0.1006 -0.9384
 1187SOL    HW1 3877   1.073   4.539   0.853  2.3306  1.0400 -0.8900
 1187SOL    HW2 3878   1.133   4.400   0.841 -0.3909 -0.2473 -0.3557
 1188SOL     OW 3879   4.019   2.940   3.337  0.6774 -0.5452 -0.3442
 1188SOL    HW1 3880   4.004   2.861   3.285 -0.4685 -0.1269 -0.6841
 1188SOL    HW2 3881   4.107   2.969   3.312  1.8768 -2.6654  1.1217
 1189SOL     OW 3882   1.156   2.110   3.744 -0.1435 -0.0551 -0.0518
 1189SOL    HW1 3883   1.213   2.118   3.668  0.4692 -0.3076  0.3718
 1189SOL    HW2 3884   1.074   2.075   3.709  0.2320 -0.4541 -0.5500
 1190SOL     OW 3885   0.384   3.325   3.819 -0.2030 -0.0378  0.1387
 1190SOL    HW1 3886   0.398   3.260   3.887  0.6725  0.7501  0.7484
 1190SOL    HW2 3887   0.471   3.343   3.784 -0.6266 -0.3888 -1.1793
 1191SOL     OW 3888   1.176   4.541   5.419  0.6633 -0.1059  0.5085
 1191SOL    HW1 3889   1.163   4.526   5.513 -1.7757  0.8548  0.3828
 1191SOL    HW2 3890   1.266   4.513   5.403  1.3355  0.1974  3.2304
 1192SOL     OW 3891   1.303   2.652   2.209 -0.1128  0.3089 -0.1351
 1192SOL    HW1 3892   1.338   2.729   2.165 -2.3855  1.9701  0.8207
 1192SOL    HW2 3893   1.301   2.676   2.302  0.5524 -1.5118  0.3976
 1193SOL     OW 3894   5.280   4.557   1.500  0.1841  0.0973  0.2393
 1193SOL    HW1 3895   5.214   4.573   1.433 -0.6764 -1.0345  0.7780
 1193SOL    HW2 3896   5.339   4.492   1.461 -0.7389 -1.1196  0.8095
 1194SOL     OW 3897   2.629   1.612   3.041  0.0821 -0.2398  0.2989
 1194SOL    HW1 3898   2.562   1.666   3.000 -1.5716 -1.8284  0.7795
 1194SOL    HW2 3899   2.688   1.588   2.970 -0.5921  0.1266 -0.3930
 1195SOL     OW 3900   3.928   0.910   3.563  0.5617 -0.1184 -0.0504
 1195SOL    HW1 3901   3.931   0.984   3.503 -2.5907 -1.3243 -1.9363
 1195SOL    HW2 3902   3.985   0.845   3.522 -1.1200 -0.7202 -1.5823
 1196SOL     OW 3903   1.902   1.269   1.527  0.2182 -0.1866 -0.0994
 1196SOL    HW1 3904   1.813   1.267   1.491 -0.0856 -0.7092  0.6561
 1196SOL    HW2 3905   1.957   1.232   1.458 -0.2356 -0.3895 -0.3541
 1197SOL     OW 3906   3.864   0.295   0.062 -0.7273  0.6354  0.3163
 1197SOL    HW1 3907   3.917   0.309   0.140  0.2997 -1.4632  0.0896
 1197SOL    HW2 3908   3.895   0.211   0.027 -1.2584  1.3999 -2.2497
 1198SOL     OW 3909   2.602   2.248   4.431  0.1003  0.0127  0.7763
 1198SOL    HW1 3910   2.625   2.178   4.492 -1.3162  0.4152  1.8356
 1198SOL    HW2 3911   2.512   2.271   4.454  0.3586  1.8363  0.1135
 1199SOL     OW 3912   1.072   3.657   1.393 -0.5368  0.9696 -0.1890
 1199SOL    HW1 3913   1.102   3.695   1.310 -1.3191 -1.2546 -1.5583
 1199SOL    HW2 3914   1.141   3.595   1.417 -1.9643 -1.0954 -1.1673
 1200SOL     OW 3915   3.828   3.936   1.487 -0.2579 -0.3344 -0.3899
 1200SOL    HW1 3916   3.819   4.005   1.421  1.5966  0.5166  0.1771
 1200SOL    HW2 3917   3.915   3.899   1.471 -0.6531 -1.5801  0.2289
 1201SOL     OW 3918   1.464   2.151   4.682 -0.0765  0.5546 -0.0167
 1201SOL    HW1 3919   1.510   2.161   4.765 -0.2046  1.4895 -0.0495
 1201SOL    HW2 3920   1.531   2.166   4.615  0.3242 -1.4615 -0.1307
 1202SOL     OW 3921   3.756   1.726   4.686  0.1155 -0.0625  0.3594
 1202SOL    HW1 3922   3.826   1.662   4.676  0.5911  0.3468  0.9995
 1202SOL    HW2 3923   3.734   1.752   4.597  0.4378 -0.5554  0.1318
 1203SOL     OW 3924   5.535   4.174   4.367 -0.1780  0.3485 -0.0462
 1203SOL    HW1 3925   5.446   4.140   4.376  0.1713 -0.1400  2.1690
 1203SOL    HW2 3926   5.572   4.167   4.455  1.9021  0.9794 -0.8185
 1204SOL     OW 3927   1.577   1.832   1.204  0.2136 -0.3842 -0.6018
 1204SOL    HW1 3928   1.507   1.864   1.148  0.7258  2.2719  0.1413
 1204SOL    HW2 3929   1.613   1.911   1.245  0.0354 -2.1150  3.2892
 1205SOL     OW 3930   3.410   5.147   1.186  0.3578 -0.1406  0.1757
 1205SOL    HW1 3931   3.425   5.170   1.278  2.1191 -1.5878  0.3333
 1205SOL    HW2 3932   3.491   5.172   1.142 -0.7078  1.1194 -1.1424
 1206SOL     OW 3933   2.629   3.828   2.729  0.4884  0.3773 -0.2407
 1206SOL    HW1 3934   2.554   3.874   2.766  1.0156  0.0502  1.3050
 1206SOL    HW2 3935   2.641   3.752   2.785  1.7654  0.2309 -0.6757
 1207SOL     OW 3936   4.184   3.642   2.836 -0.0233  0.2007 -0.1115
 1207SOL    HW1 3937   4.180   3.735   2.812  0.3997  0.4811  0.8234
 1207SOL    HW2 3938   4.200   3.596   2.754 -0.3867  0.9440 -0.6069
 1208SOL     OW 3939   2.558   3.207   1.516  0.1591 -0.7530  0.3959
 1208SOL    HW1 3940   2.513   3.291   1.507  0.5344 -0.3794  1.7414
 1208SOL    HW2 3941   2.528   3.155   1.442 -0.0174  0.5983 -0.5093
 1209SOL     OW 3942   4.400   0.256   0.534 -0.7136  0.1152 -0.1177
 1209SOL    HW1 3943   4.394   0.266   0.439  0.9132 -0.1304 -0.2742
 1209SOL    HW2 3944   4.462   0.184   0.547 -0.0462  0.8677  1.1171
 1210SOL     OW 3945   2.248   2.773   0.968 -0.1230  0.1740  0.2544
 1210SOL    HW1 3946   2.198   2.694   0.988  0.8511 -0.6038 -0.2814
 1210SOL    HW2 3947   2.254   2.773   0.872  1.1326  0.0735  0.3098
 1211SOL     OW 3948   3.884   0.168   2.989  0.1646  0.0285  0.4072
 1211SOL    HW1 3949   3.839   0.093   3.029 -2.7575 -0.7224 -3.6698
 1211SOL    HW2 3950   3.822   0.241   2.998  0.5224  0.4663 -0.5235
 1212SOL     OW 3951   4.815   3.869   1.980  0.2349  0.3680  0.1516
 1212SOL    HW1 3952   4.906   3.853   2.002 -0.1404 -2.2421  0.1301
 1212SOL    HW2 3953   4.774   3.897   2.062  0.6095 -0.6945  0.7152
 1213SOL     OW 3954   2.259   5.466   0.692 -0.1178 -0.2957 -0.3908
 1213SOL    HW1 3955   2.166   5.442   0.700  0.4169 -2.3041  0.2404
 1213SOL    HW2 3956   2.294   5.406   0.627  1.2824 -1.3540  1.2494
 1214SOL     OW 3957   1.112   1.796   3.408 -0.2264  0.3536 -0.1747
 1214SOL    HW1 3958   1.177   1.809   3.339  1.4463  1.9135  1.6103
 1214SOL    HW2 3959   1.040   1.855   3.385  0.3816  0.9767 -0.4846
 1215SOL     OW 3960   3.225   4.536   5.419 -0.2066  0.1776  0.0027
 1215SOL    HW1 3961   3.321   4.529   5.424 -0.3730 -5.0960  0.7913
 1215SOL    HW2 3962   3.201   4.582   5.500  1.5887 -2.3924  2.1583
 1216SOL     OW 3963   4.575   2.376   0.387 -0.7214  0.4813 -0.4627
 1216SOL    HW1 3964   4.669   2.374   0.369 -0.5985 -2.2968  0.0084
 1216SOL    HW2 3965   4.568   2.420   0.472  0.1886  0.5125 -0.3887
 1217SOL     OW 3966   1.332   4.660   2.885 -0.6071  0.1756 -0.1405
 1217SOL    HW1 3967   1.423   4.635   2.902  0.3356 -0.9597 -5.2481
 1217SOL    HW2 3968   1.323   4.747   2.925  1.8541 -0.6639  2.5579
 1218SOL     OW 3969   4.684   1.254   1.280 -0.2728 -0.2487  0.1442
 1218SOL    HW1 3970   4.765   1.304   1.289  0.9576 -2.0029 -0.6313
 1218SOL    HW2 3971   4.683   1.196   1.357 -0.4784 -0.6575 -0.1648
 1219SOL     OW 3972   4.467   0.998   1.174 -0.4981  0.3090 -0.3085
 1219SOL    HW1 3973   4.468   1.089   1.145  0.9334  0.2384 -0.5232
 1219SOL    HW2 3974   4.442   0.948   1.095 -0.4619  0.4441 -0.4058
 1220SOL     OW 3975   4.695   4.582   2.468 -0.6490  0.1673 -0.3641
 1220SOL    HW1 3976   4.658   4.565   2.381 -0.0800 -1.7664 -0.2751
 1220SOL    HW2 3977   4.632   4.545   2.529  0.5551 -1.6439 -0.1444
 1221SOL     OW 3978   5.539   0.139   1.177  0.5573  0.5546 -0.3240
 1221SOL    HW1 3979   5.619   0.192   1.184  0.3827  0.7149  0.5304
 1221SOL    HW2 3980   5.505   0.159   1.090  1.4764  0.4403 -0.7221
 1222SOL     OW 3981   1.583   1.971   1.639 -0.4319 -0.4235  0.4573
 1222SOL    HW1 3982   1.587   1.876   1.631 -0.1713 -0.3097 -0.9579
 1222SOL    HW2 3983   1.552   2.001   1.553  0.0079  0.8001  0.7131
 1223SOL     OW 3984   4.110   5.067   4.260 -0.0149 -0.0077  0.9864
 1223SOL    HW1 3985   4.044   5.067   4.328  0.4360 -1.7176  1.4956
 1223SOL    HW2 3986   4.068   5.023   4.186 -0.1398  0.8303  0.5586
 1224SOL     OW 3987   0.578   4.515   3.012 -0.1527  0.0511  0.8540
 1224SOL    HW1 3988   0.552   4.562   2.932 -0.8340  0.5121  1.3301
 1224SOL    HW2 3989   0.496   4.506   3.061  0.5129  1.2385  2.2555
 1225SOL     OW 3990   1.688   2.045   1.335 -0.4892  0.6986 -0.3087
 1225SOL    HW1 3991   1.756   2.000   1.385  0.3575 -1.4200 -3.1055
 1225SOL    HW2 3992   1.687   2.135   1.369  1.5977 -0.0146  1.8195
 1226SOL     OW 3993   3.596   2.533   2.236 -0.0961  0.1539  0.3303
 1226SOL    HW1 3994   3.656   2.502   2.168 -0.7174 -1.7979  0.5866
 1226SOL    HW2 3995   3.510   2.530   2.195 -0.3192  0.3354  0.7773
 1227SOL     OW 3996   0.329   0.673   0.277 -0.5053 -0.3270  0.3060
 1227SOL    HW1 3997   0.314   0.737   0.347 -1.1406 -0.7539  0.5702
 1227SOL    HW2 3998   0.261   0.607   0.290 -0.5931 -0.4458 -0.6850
 1228SOL     OW 3999   0.335   3.429   2.433 -0.6995  0.0051 -0.5711
 1228SOL    HW1 4000   0.276   3.354   2.441 -3.1228  1.9390  1.1041
 1228SOL    HW2 4001   0.280   3.505   2.452  0.9542  2.5618 -4.6134
 1229SOL     OW 4002   0.981   1.404   3.905  0.4977 -0.5946  0.1009
 1229SOL    HW1 4003   0.914   1.394   3.838 -0.9470 -1.3640  1.6003
 1229SOL    HW2 4004   1.050   1.342   3.880 -1.5632 -3.4768  1.0922
 1230SOL     OW 4005   2.140   3.209   0.476 -0.3577 -0.6038 -0.2354
 1230SOL    HW1 4006   2.166   3.208   0.384  2.3025  1.3553  0.3728
 1230SOL    HW2 4007   2.217   3.175   0.523  0.0363  2.3192  1.4780
 1231SOL     OW 4008   3.024   4.102   4.709 -0.2900  0.3194 -0.2195
 1231SOL    HW1 4009   3.052   4.100   4.618  0.8829 -0.2743  0.1363
 1231SOL    HW2 4010   3.102   4.125   4.758  0.0725 -2.8753  0.9371
 1232SOL     OW 4011   3.271   0.433   4.320 -0.0951 -0.4833 -0.4117
 1232SOL    HW1 4012   3.353   0.392   4.290  0.4962  0.1732  0.2732
 1232SOL    HW2 4013   3.266   0.412   4.413 -1.3109 -1.4950 -0.6861
 1233SOL     OW 4014   0.039   0.135   0.436 -0.4963  0.7844  0.9423
 1233SOL    HW1 4015   0.124   0.154   0.395 -1.1342  2.1863  0.1829
 1233SOL    HW2 4016  -0.017   0.208   0.409 -2.6919 -1.3421 -0.6956
 1234SOL     OW 4017   2.469   3.631   4.826 -0.2479 -0.1088 -0.2608
 1234SOL    HW1 4018   2.474   3.537   4.845 -0.4137 -0.8274 -3.2310
 1234SOL    HW2 4019   2.375   3.650   4.820 -0.2200 -0.2409 -1.4718
 1235SOL     OW 4020   1.408   1.955   3.655 -0.7592  0.6796 -0.5161
 1235SOL    HW1 4021   1.494   1.918   3.673 -1.0330 -0.2570 -1.0262
 1235SOL    HW2 4022   1.346   1.889   3.687 -1.3004  1.5261  0.2190
 1236SOL     OW 4023   3.158   0.267   0.770 -0.5054 -0.2591  0.6010
 1236SOL    HW1 4024   3.079   0.213   0.772  0.8721 -2.3785 -0.0126
 1236SOL    HW2 4025   3.176   0.286   0.862 -1.8416  0.4946  0.7359
 1237SOL     OW 4026   4.614   2.022   2.577 -0.2818 -0.1975  0.0910
 1237SOL    HW1 4027   4.592   2.076   2.501  2.2401 -1.3325 -1.5652
 1237SOL    HW2 4028   4.663   2.081   2.634  1.9045 -0.4384 -1.4133
 1238SOL     OW 4029   2.180   3.217   5.393 -0.0792 -0.2679  0.4957
 1238SOL    HW1 4030   2.087   3.232   5.380 -0.1021 -1.4285 -0.9957
 1238SOL    HW2 4031   2.222   3.296   5.358 -0.4319 -0.7426 -1.0743
 1239SOL     OW 4032   2.922   1.762   5.446 -0.0856  0.5957  0.4461
 1239SOL    HW1 4033   2.931   1.746   5.540 -1.1000  0.4716  0.5284
 1239SOL    HW2 4034   2.985   1.701   5.405 -0.2745  0.0216  1.0001
 1240SOL     OW 4035   3.543   1.551   0.040  0.3821  0.0639  0.1184
 1240SOL    HW1 4036   3.620   1.545  -0.017  0.3308 -0.5318  0.1018
 1240SOL    HW2 4037   3.573   1.602   0.116  0.3529  1.1539 -0.5864
 1241SOL     OW 4038   5.498   2.203   0.411 -0.6696  0.4169  0.1846
 1241SOL    HW1 4039   5.417   2.165   0.443 -1.1417  1.0642 -0.2198
 1241SOL    HW2 4040   5.488   2.297   0.426 -0.7243  0.6976 -1.4153
 1242SOL     OW 4041   0.173   5.140   3.262 -0.3294  0.2438 -0.5860
 1242SOL    HW1 4042   0.081   5.127   3.286 -0.2387  0.2939 -0.2078
 1242SOL    HW2 4043   0.220   5.068   3.306  0.0655  1.3276  0.8450
 1243SOL     OW 4044   1.569   1.943   0.840  0.2523  0.3980 -0.0209
 1243SOL    HW1 4045   1.508   1.900   0.780  1.0971  0.6106 -1.0501
 1243SOL    HW2 4046   1.630   1.874   0.865 -0.5121  0.1244  1.2014
 1244SOL     OW 4047   5.469   0.011   4.895 -0.6663 -0.3106  0.0253
 1244SOL    HW1 4048   5.437  -0.053   4.831  0.9155 -1.2415  0.1044
 1244SOL    HW2 4049   5.561   0.024   4.872  0.0145 -0.8508  2.2262
 1245SOL     OW 4050   4.404   0.408   0.767  0.0579  0.0572 -0.2826
 1245SOL    HW1 4051   4.405   0.372   0.678 -0.6649  1.0949 -0.7258
 1245SOL    HW2 4052   4.448   0.341   0.820  1.1663 -0.2490 -1.5294
 1246SOL     OW 4053   2.600   1.243   0.310 -0.1951 -0.3186 -0.9834
 1246SOL    HW1 4054   2.615   1.173   0.374  0.0878  1.4946  1.0485
 1246SOL    HW2 4055   2.687   1.267   0.279 -0.2498 -0.4588 -1.2541
 1247SOL     OW 4056   0.581   4.131   1.653 -0.1369  0.4752  0.8436
 1247SOL    HW1 4057   0.615   4.102   1.568 -1.3706  0.4694  0.3371
 1247SOL    HW2 4058   0.548   4.219   1.637 -1.0804  0.1833  1.1118
 1248SOL     OW 4059   5.089   1.844   2.235  0.3319  0.0952 -0.3817
 1248SOL    HW1 4060   5.027   1.875   2.300  0.2992 -1.7874  0.5466
 1248SOL    HW2 4061   5.175   1.866   2.271  0.2816  0.1465 -0.2944
 1249SOL     OW 4062   0.804   4.586   4.309  0.5026  0.2063  0.4837
 1249SOL    HW1 4063   0.894   4.598   4.277  0.4562  1.6683  0.8227
 1249SOL    HW2 4064   0.813   4.579   4.404  0.4955 -2.5816  0.3482
 1250SOL     OW 4065   0.884   1.224   4.099 -0.3585  0.0948  0.0207
 1250SOL    HW1 4066   0.825   1.183   4.036  1.6511 -2.5782 -0.3164
 1250SOL    HW2 4067   0.954   1.263   4.047 -0.5188  1.0635  0.4986
 1251SOL     OW 4068   4.274   5.139   0.777 -0.0106  0.4530  0.6737
 1251SOL    HW1 4069   4.264   5.223   0.822  2.2792  0.4340  1.3203
 1251SOL    HW2 4070   4.343   5.094   0.826 -0.1780 -1.1966 -0.5542
 1252SOL     OW 4071   2.603   0.855   4.729  0.0722 -0.2011 -0.0103
 1252SOL    HW1 4072   2.532   0.792   4.739  1.4369 -1.6331  1.1424
 1252SOL    HW2 4073   2.561   0.941   4.739 -1.7901 -0.8801 -1.4237
 1253SOL     OW 4074   1.428   4.282   1.492 -0.4519  0.5731 -0.5034
 1253SOL    HW1 4075   1.407   4.376   1.495  1.0866  0.9573 -0.8725
 1253SOL    HW2 4076   1.423   4.260   1.399 -2.5926 -0.1875 -0.2642
 1254SOL     OW 4077   5.381   2.465   3.090 -0.0228  0.6746  0.3791
 1254SOL    HW1 4078   5.356   2.380   3.055 -1.3080  1.1257  0.1828
 1254SOL    HW2 4079   5.308   2.490   3.146  0.3263  1.6802  0.3917
 1255SOL     OW 4080   2.866   1.138   5.444  0.4681 -0.7800 -0.3996
 1255SOL    HW1 4081   2.913   1.104   5.367  0.1177  1.1265 -1.5389
 1255SOL    HW2 4082   2.776   1.148   5.414  0.1914 -0.6195  0.4746
 1256SOL     OW 4083   2.733   4.023   1.481  0.0742 -0.0932  0.0067
 1256SOL    HW1 4084   2.700   3.986   1.563 -2.7713  1.4515 -0.3070
 1256SOL    HW2 4085   2.798   4.088   1.509  1.1813 -1.4844  0.8111
 1257SOL     OW 4086   2.945   0.104   1.803  0.6308  0.1496 -0.0336
 1257SOL    HW1 4087   2.959   0.155   1.722  1.1543  1.0804  0.6238
 1257SOL    HW2 4088   3.024   0.052   1.812  0.8304  0.4903  0.1919
 1258SOL     OW 4089   3.870   3.958   4.947  0.2496  0.9330 -0.4528
 1258SOL    HW1 4090   3.963   3.983   4.952  0.5803 -0.4826  3.6766
 1258SOL    HW2 4091   3.831   3.991   5.028 -2.2204 -0.8766 -0.7917
 1259SOL     OW 4092   1.934   3.660   2.109 -0.4348  0.2030  0.0749
 1259SOL    HW1 4093   1.912   3.668   2.016 -2.4883 -0.7534  0.4211
 1259SOL    HW2 4094   2.029   3.650   2.110 -0.4219 -0.3957 -1.9887
 1260SOL     OW 4095   2.472   0.139   3.440  0.6691  0.2040  0.3281
 1260SOL    HW1 4096   2.558   0.104   3.466  0.0964 -0.9112  0.7768
 1260SOL    HW2 4097   2.445   0.193   3.514 -0.2111 -1.6382  1.4183
 1261SOL     OW 4098   2.898   4.805   3.876 -0.5989  0.6222  0.4275
 1261SOL    HW1 4099   2.953   4.777   3.803  0.0582  0.1110  1.1012
 1261SOL    HW2 4100   2.811   4.770   3.855 -0.4820  0.7163 -0.2393
 1262SOL     OW 4101   1.841   5.291   3.053 -0.0620 -0.5806 -0.5007
 1262SOL    HW1 4102   1.887   5.243   3.121 -0.4796  0.8335  0.8299
 1262SOL    HW2 4103   1.847   5.234   2.976 -2.0087 -3.6128  1.3519
 1263SOL     OW 4104   1.767   4.462   3.215 -0.1238  0.0814  0.3980
 1263SOL    HW1 4105   1.802   4.394   3.158  0.7074 -0.4142  1.4612
 1263SOL    HW2 4106   1.794   4.544   3.173 -1.6060 -0.1829 -1.1799
 1264SOL     OW 4107   1.514   0.083   1.789  0.3457 -0.2062 -0.2561
 1264SOL    HW1 4108   1.511   0.163   1.841 -0.1314  0.6004 -1.4847
 1264SOL    HW2 4109   1.605   0.078   1.758  0.5302 -0.4751  0.3294
 1265SOL     OW 4110   4.785   4.023   3.987  0.0870  0.5549  0.2880
 1265SOL    HW1 4111   4.809   4.066   3.905 -0.4955  1.8333  0.7645
 1265SOL    HW2 4112   4.749   4.093   4.041  0.6176 -0.2281  1.7029
 1266SOL     OW 4113   4.093   0.961   2.754  0.0389  0.4802  0.4353
 1266SOL    HW1 4114   4.041   0.938   2.677  0.0976 -2.5463  1.1551
 1266SOL    HW2 4115   4.177   0.990   2.719  0.1912 -1.1763 -0.7053
 1267SOL     OW 4116   5.105   2.591   2.502  0.1591  0.1254 -0.0925
 1267SOL    HW1 4117   5.151   2.525   2.451  0.4595 -0.0360  0.3911
 1267SOL    HW2 4118   5.157   2.671   2.491  0.1788  0.1114 -0.0997
 1268SOL     OW 4119   4.251   1.623   1.747  0.9706 -0.3862 -0.1919
 1268SOL    HW1 4120   4.283   1.534   1.762  2.9477  0.5152  1.3730
 1268SOL    HW2 4121   4.161   1.611   1.717  0.6098 -2.8646  1.5885
 1269SOL     OW 4122   3.879   3.976   2.892 -0.6437 -0.0211  0.2545
 1269SOL    HW1 4123   3.947   3.924   2.935 -0.1429 -0.5637 -1.1426
 1269SOL    HW2 4124   3.822   3.912   2.851 -0.8776  0.4879 -0.2320
 1270SOL     OW 4125   2.804   3.841   4.589  0.4606  0.0650 -0.3135
 1270SOL    HW1 4126   2.888   3.882   4.606  0.4970 -0.5155  1.0169
 1270SOL    HW2 4127   2.789   3.784   4.664 -0.4419 -0.9604 -1.2264
 1271SOL     OW 4128   0.577   1.723   4.313  0.3143  0.5505 -0.4917
 1271SOL    HW1 4129   0.626   1.745   4.234  0.9633  0.6139 -0.0761
 1271SOL    HW2 4130   0.532   1.804   4.337  0.8055  0.7739 -0.3118
 1272SOL     OW 4131   2.234   4.721   5.399 -0.7027  0.5324  0.0963
 1272SOL    HW1 4132   2.145   4.724   5.432 -0.7897  0.7394 -0.1517
 1272SOL    HW2 4133   2.266   4.811   5.406 -0.8453  0.6559 -0.7013
 1273SOL     OW 4134   3.853   5.149   3.863  0.2947  0.2137 -0.2395
 1273SOL    HW1 4135   3.826   5.166   3.772 -2.0928  0.5115  0.4647
 1273SOL    HW2 4136   3.935   5.100   3.854 -0.7956 -1.4055 -2.6232
 1274SOL     OW 4137   3.920   3.655   5.396  0.2907  0.2537 -0.6309
 1274SOL    HW1 4138   3.900   3.564   5.421 -0.2314  0.5750  0.1484
 1274SOL    HW2 4139   3.947   3.648   5.305  2.4362 -0.9890  0.0313
 1275SOL     OW 4140   2.295   3.138   4.804  0.0715 -0.0250  0.5591
 1275SOL    HW1 4141   2.207   3.110   4.829  0.7988 -0.8972  2.2826
 1275SOL    HW2 4142   2.329   3.066   4.751  0.5448 -0.7460  1.7992
 1276SOL     OW 4143   4.030   2.218   4.061  0.0341  0.2183 -0.5448
 1276SOL    HW1 4144   4.063   2.180   4.142 -0.5952  1.0748  0.1346
 1276SOL    HW2 4145   3.975   2.150   4.023  0.4018 -0.2202 -0.3101
 1277SOL     OW 4146   0.850   2.341   4.488 -0.0684 -1.1783  0.4122
 1277SOL    HW1 4147   0.909   2.329   4.414  0.6851  1.2341  0.5233
 1277SOL    HW2 4148   0.907   2.374   4.558 -1.0405 -1.8255  1.5273
 1278SOL     OW 4149   5.218   4.873   2.629 -0.4715 -0.1980 -0.7662
 1278SOL    HW1 4150   5.259   4.787   2.617 -0.6663 -1.0797  3.4200
 1278SOL    HW2 4151   5.124   4.855   2.629 -0.5491  0.2009 -0.8565
 1279SOL     OW 4152   2.852   5.488   5.038 -0.0003 -0.0714  0.3909
 1279SOL    HW1 4153   2.838   5.582   5.038 -1.0888 -0.2245  0.2135
 1279SOL    HW2 4154   2.832   5.460   5.127  1.4974  0.0113  0.7823
 1280SOL     OW 4155   3.677   1.995   5.252 -0.1434 -0.6880  0.7346
 1280SOL    HW1 4156   3.630   1.912   5.245  1.1565 -1.3981 -0.1339
 1280SOL    HW2 4157   3.643   2.048   5.180 -0.8891 -0.4938  1.2169
 1281SOL     OW 4158   3.134   0.231   4.466 -0.2055  0.2908  0.2184
 1281SOL    HW1 4159   3.194   0.218   4.393  0.1359 -0.4634  0.6162
 1281SOL    HW2 4160   3.072   0.296   4.435 -0.0835 -0.0360 -0.7509
 1282SOL     OW 4161   1.893   3.913   1.887  0.1209  0.4656 -0.3669
 1282SOL    HW1 4162   1.805   3.912   1.923  0.8126  0.3847  1.4057
 1282SOL    HW2 4163   1.914   3.820   1.873 -0.0705  0.4862 -0.8131
 1283SOL     OW 4164   3.692   0.476   3.928  0.5717 -0.4168 -0.5111
 1283SOL    HW1 4165   3.644   0.414   3.982 -0.6351  1.4067  0.6217
 1283SOL    HW2 4166   3.782   0.471   3.959  0.0220  0.1229  1.2873
 1284SOL     OW 4167   0.198   3.350   5.557  0.0996 -1.1037  0.0653
 1284SOL    HW1 4168   0.248   3.305   5.624  0.5320 -2.0807 -0.8827
 1284SOL    HW2 4169   0.109   3.316   5.567  0.0931 -1.0094  0.3382
 1285SOL     OW 4170   3.553   0.685   3.266 -0.2505  0.2602 -0.3815
 1285SOL    HW1 4171   3.461   0.710   3.268 -0.2935  0.4063 -2.2815
 1285SOL    HW2 4172   3.564   0.628   3.342 -1.7308  0.8026  0.2705
 1286SOL     OW 4173   3.961   1.679   5.442  0.4038  0.3988 -0.2769
 1286SOL    HW1 4174   3.888   1.737   5.465 -0.7825 -1.6458  1.5169
 1286SOL    HW2 4175   3.966   1.682   5.347 -1.3799  1.3447 -0.3744
 1287SOL     OW 4176   5.166   2.301   4.880  0.0760 -0.0444  0.1300
 1287SOL    HW1 4177   5.259   2.322   4.891  0.2867 -1.1266  0.6203
 1287SOL    HW2 4178   5.125   2.331   4.961  0.2223 -0.6458  0.4389
 1288SOL     OW 4179   2.385   1.584   3.264 -0.1748 -0.3129 -0.6441
 1288SOL    HW1 4180   2.458   1.576   3.202  0.9545  2.4760  0.1817
 1288SOL    HW2 4181   2.366   1.494   3.290  0.5045 -1.4399 -3.6107
 1289SOL     OW 4182   5.127   2.735   2.895  0.2608  0.8825  0.4611
 1289SOL    HW1 4183   5.158   2.823   2.874 -1.5636  0.9973 -2.4208
 1289SOL    HW2 4184   5.040   2.749   2.933  1.3058  0.3720  3.2238
 1290SOL     OW 4185   2.894   2.993   2.016  0.5762 -0.1113  0.3850
 1290SOL    HW1 4186   2.934   2.907   2.009  0.3768 -0.0380 -2.7086
 1290SOL    HW2 4187   2.946   3.049   1.958 -1.7235  0.8574 -0.8536
 1291SOL     OW 4188   0.295   3.878   0.859 -0.2995  0.0912 -1.0171
 1291SOL    HW1 4189   0.307   3.972   0.846 -1.2632  0.6995  1.8314
 1291SOL    HW2 4190   0.201   3.864   0.852 -0.2174 -0.5565 -0.8992
 1292SOL     OW 4191   0.471   0.474   0.401  0.2356 -0.4620 -0.0323
 1292SOL    HW1 4192   0.435   0.545   0.348 -0.9528  0.1806  1.5909
 1292SOL    HW2 4193   0.499   0.516   0.482  0.9251 -1.6234  0.3556
 1293SOL     OW 4194   0.946   2.442   5.257  0.6366  0.3423 -0.3603
 1293SOL    HW1 4195   1.032   2.454   5.297  0.9590 -0.3907 -0.8083
 1293SOL    HW2 4196   0.885   2.480   5.320  1.2251  0.2503  0.2814
 1294SOL     OW 4197   1.290   3.225   0.066 -0.1138 -0.5476  0.5770
 1294SOL    HW1 4198   1.333   3.308   0.086 -2.0784  0.9155 -0.8911
 1294SOL    HW2 4199   1.307   3.211  -0.027 -1.7332 -0.5192  0.2411
 1295SOL     OW 4200   0.753   0.244   3.826 -0.6304  0.0324  0.0480
 1295SOL    HW1 4201   0.847   0.259   3.837 -0.6784 -1.3489  4.7705
 1295SOL    HW2 4202   0.718   0.330   3.801  1.5278  1.6359  2.0348
 1296SOL     OW 4203   0.114   4.518   0.413  0.1664  0.2835  0.4572
 1296SOL    HW1 4204   0.045   4.453   0.425  0.4043 -0.5038 -1.8641
 1296SOL    HW2 4205   0.158   4.491   0.332  0.4101  3.2465 -0.5067
 1297SOL     OW 4206   2.832   2.142   3.074 -0.3064 -0.3267 -0.0584
 1297SOL    HW1 4207   2.915   2.131   3.028 -0.5667 -2.0730 -0.1683
 1297SOL    HW2 4208   2.844   2.096   3.157 -0.5638  0.9990  0.7587
 1298SOL     OW 4209   2.191   1.069   4.207 -0.1630 -0.1616 -0.0342
 1298SOL    HW1 4210   2.146   1.025   4.279  2.2132 -0.8819  1.1126
 1298SOL    HW2 4211   2.243   1.000   4.164 -1.1341  0.3508 -2.1735
 1299SOL     OW 4212   2.193   0.128   3.097  0.0769  0.3452 -0.2747
 1299SOL    HW1 4213   2.164   0.091   3.181  1.2813 -0.9829 -0.4100
 1299SOL    HW2 4214   2.137   0.087   3.032 -0.8113  1.3241 -0.1673
 1300SOL     OW 4215   0.645   3.092   3.838  0.3958 -0.0664  0.6352
 1300SOL    HW1 4216   0.730   3.057   3.809  1.5120  2.2140  0.8793
 1300SOL    HW2 4217   0.615   3.145   3.764 -0.9227 -0.9906  0.4923
 1301SOL     OW 4218   4.765   0.339   0.568  0.4637  0.3614  0.3545
 1301SOL    HW1 4219   4.704   0.301   0.504 -3.1197 -0.0015  3.6480
 1301SOL    HW2 4220   4.795   0.264   0.619  1.1543  0.9352  0.8104
 1302SOL     OW 4221   1.717   2.127   3.776  0.1987  0.2706 -0.1563
 1302SOL    HW1 4222   1.651   2.084   3.722  1.1540  0.4284 -1.5061
 1302SOL    HW2 4223   1.800   2.086   3.749  0.6081 -0.6663  2.2066
 1303SOL     OW 4224   4.486   3.621   2.495  0.0817  0.5321  0.1880
 1303SOL    HW1 4225   4.463   3.528   2.494  1.0639  0.2741  0.5979
 1303SOL    HW2 4226   4.521   3.637   2.582  1.2026  0.9518 -0.3108
 1304SOL     OW 4227   3.150   3.248   2.089 -0.1523 -0.2790  0.2266
 1304SOL    HW1 4228   3.196   3.326   2.120  1.3101 -0.5214 -1.2396
 1304SOL    HW2 4229   3.156   3.252   1.994  0.9100 -2.7116  0.1144
 1305SOL     OW 4230   5.370   3.288   5.168 -0.3277 -0.9405 -0.3091
 1305SOL    HW1 4231   5.372   3.226   5.096 -0.6325  0.2183 -1.3427
 1305SOL    HW2 4232   5.322   3.243   5.238 -1.9923 -1.2856 -1.6197
 1306SOL     OW 4233   0.436   3.165   2.032  0.1866  0.2121 -0.5385
 1306SOL    HW1 4234   0.478   3.091   2.075 -0.9319 -0.0851  0.0968
 1306SOL    HW2 4235   0.472   3.242   2.077  1.2909  0.0642 -1.1470
 1307SOL     OW 4236   2.429   0.271   3.187 -0.1485  0.0195 -0.3906
 1307SOL    HW1 4237   2.354   0.220   3.157  1.2527 -1.1601 -2.0516
 1307SOL    HW2 4238   2.454   0.229   3.270 -1.8595  1.0506  0.7153
 1308SOL     OW 4239   2.117   0.901   1.324  0.2724 -0.1879  0.2914
 1308SOL    HW1 4240   2.210   0.907   1.344  0.2159 -2.6405  1.7882
 1308SOL    HW2 4241   2.078   0.866   1.405 -1.8483  0.2282 -0.4955
 1309SOL     OW 4242   3.049   4.112   4.403 -0.0058 -0.3109 -0.2898
 1309SOL    HW1 4243   2.974   4.063   4.370 -0.8672  0.8937 -0.1788
 1309SOL    HW2 4244   3.022   4.204   4.399  0.7501  0.0340  1.5111
 1310SOL     OW 4245   0.482   1.771   3.018 -0.6477 -0.2749  0.0340
 1310SOL    HW1 4246   0.476   1.754   2.924  0.0372  1.0533 -0.2734
 1310SOL    HW2 4247   0.392   1.765   3.050 -0.6810 -2.4309 -0.3686
 1311SOL     OW 4248   0.927   4.173   0.694 -0.7351 -0.3736  0.3133
 1311SOL    HW1 4249   0.943   4.081   0.675 -3.1019 -0.6923 -0.4345
 1311SOL    HW2 4250   0.849   4.173   0.749 -1.3796  1.2185 -0.5389
 1312SOL     OW 4251   0.874   4.621   3.414  0.1169  0.0990 -0.5087
 1312SOL    HW1 4252   0.786   4.624   3.450 -0.1580 -1.7668 -0.9148
 1312SOL    HW2 4253   0.926   4.677   3.473 -1.5384  2.3653 -1.0694
 1313SOL     OW 4254   1.092   0.362   2.316  0.0771  0.3110 -0.4251
 1313SOL    HW1 4255   1.165   0.343   2.257 -0.7908 -1.4896 -0.9865
 1313SOL    HW2 4256   1.065   0.451   2.293  0.4826  0.0576 -1.9690
 1314SOL     OW 4257   0.801   3.506   3.203 -0.2379  0.3489 -0.2606
 1314SOL    HW1 4258   0.742   3.554   3.146 -0.7112 -0.5469 -0.5399
 1314SOL    HW2 4259   0.883   3.500   3.154  0.2835  2.0613  0.3478
 1315SOL     OW 4260   0.955   2.218   4.856  0.2654  0.7967 -0.6062
 1315SOL    HW1 4261   0.989   2.306   4.843  0.7168  0.7443  0.1667
 1315SOL    HW2 4262   0.863   2.224   4.832  0.3214  1.4487 -0.6683
 1316SOL     OW 4263   4.054   3.072   3.900  0.0768  0.5987 -0.4096
 1316SOL    HW1 4264   4.035   3.166   3.903  1.3855  0.9120 -1.2885
 1316SOL    HW2 4265   3.968   3.030   3.911 -0.6394  1.8951 -0.8461
 1317SOL     OW 4266   2.670   0.162   1.200 -0.4505 -0.1885 -0.1064
 1317SOL    HW1 4267   2.578   0.187   1.191 -0.4250  0.8546  1.8565
 1317SOL    HW2 4268   2.666   0.071   1.231 -0.9790  0.5570  2.2307
 1318SOL     OW 4269   1.372   4.709   5.126  0.0868 -0.3946  0.6911
 1318SOL    HW1 4270   1.396   4.642   5.190  0.7367  1.6180  2.6971
 1318SOL    HW2 4271   1.424   4.786   5.152 -2.6071  1.7216  0.2349
 1319SOL     OW 4272   2.456   1.708   5.093 -0.1910 -0.3393 -0.4027
 1319SOL    HW1 4273   2.530   1.694   5.152  0.7144  1.3059 -1.0823
 1319SOL    HW2 4274   2.380   1.674   5.141  0.9344 -1.7662  0.4459
 1320SOL     OW 4275   4.025   4.412   3.917 -0.0894  0.2939  0.0780
 1320SOL    HW1 4276   4.087   4.431   3.848 -0.9628  1.5452 -0.3958
 1320SOL    HW2 4277   3.950   4.468   3.899 -0.0868  1.1903  2.4238
 1321SOL     OW 4278   1.603   0.139   0.693 -0.2181  0.1555 -0.2935
 1321SOL    HW1 4279   1.653   0.221   0.694 -0.2014  0.1762  2.0155
 1321SOL    HW2 4280   1.646   0.086   0.626  1.2552  1.1629 -0.1898
 1322SOL     OW 4281   0.303   3.705   2.753  0.2741  0.1301  0.3329
 1322SOL    HW1 4282   0.258   3.744   2.828 -1.4926  1.4525 -1.3085
 1322SOL    HW2 4283   0.356   3.776   2.718 -0.1908  0.0242 -0.6036
 1323SOL     OW 4284   3.729   2.999   4.611 -0.3393  0.1242  0.4802
 1323SOL    HW1 4285   3.684   2.949   4.679 -1.7375  0.2904 -0.2980
 1323SOL    HW2 4286   3.821   2.976   4.622 -0.7923 -1.5856  0.9970
 1324SOL     OW 4287   3.410   3.077   0.340  0.4351  0.0959  0.4047
 1324SOL    HW1 4288   3.435   3.076   0.433  0.3857 -2.4889  0.4577
 1324SOL    HW2 4289   3.449   2.997   0.304  0.7308  1.2071 -1.9073
 1325SOL     OW 4290   0.037   0.757   5.442 -0.0867 -0.1535 -0.2100
 1325SOL    HW1 4291  -0.006   0.722   5.364 -0.3827  1.3436 -0.7569
 1325SOL    HW2 4292   0.128   0.771   5.416  0.0573 -0.5828  0.0414
 1326SOL     OW 4293   3.405   4.534   0.848 -0.7689 -0.4512  0.4619
 1326SOL    HW1 4294   3.419   4.547   0.754 -0.4278 -0.3709  0.5214
 1326SOL    HW2 4295   3.376   4.444   0.856 -1.4142 -0.2651  0.2156
 1327SOL     OW 4296   2.650   1.693   1.453  0.4625  0.7339  0.1797
 1327SOL    HW1 4297   2.674   1.622   1.394  1.9785  0.8795  0.5597
 1327SOL    HW2 4298   2.567   1.666   1.492  0.6161 -0.4495 -0.2805
 1328SOL     OW 4299   0.807   2.563   5.447  0.2877  0.3791 -0.4026
 1328SOL    HW1 4300   0.764   2.626   5.389  0.8870  1.2738  0.1102
 1328SOL    HW2 4301   0.889   2.605   5.472  0.9454 -0.8235 -0.4476
 1329SOL     OW 4302   1.885   1.604   0.687 -0.0375 -0.0847  0.4932
 1329SOL    HW1 4303   1.873   1.546   0.612  0.8593  0.2496  0.0778
 1329SOL    HW2 4304   1.873   1.692   0.652  0.2593  0.0654  0.7610
 1330SOL     OW 4305   1.814   2.323   0.242  0.7061 -0.1767 -0.2230
 1330SOL    HW1 4306   1.818   2.327   0.338 -0.4181  0.5376 -0.1913
 1330SOL    HW2 4307   1.736   2.271   0.223 -0.4031  1.5896 -0.7309
 1331SOL     OW 4308   1.992   0.492   3.984 -0.5479 -0.0275 -0.0385
 1331SOL    HW1 4309   1.928   0.498   4.055 -0.4899  0.6726 -0.0325
 1331SOL    HW2 4310   2.076   0.484   4.027 -0.6786 -1.7884 -0.0482
 1332SOL     OW 4311   4.014   5.099   0.655  0.2080 -0.0279  0.4910
 1332SOL    HW1 4312   4.016   5.188   0.619 -1.7742  0.0816  0.5265
 1332SOL    HW2 4313   4.069   5.104   0.733  0.3586  1.0833  0.3366
 1333SOL     OW 4314   4.227   3.214   4.707  0.0244 -0.1094 -0.2531
 1333SOL    HW1 4315   4.286   3.273   4.660  1.6769  1.3399  3.2454
 1333SOL    HW2 4316   4.286   3.155   4.754 -1.3619 -0.1167  1.5864
 1334SOL     OW 4317   4.629   3.094   5.464  0.1183  0.0504 -0.0208
 1334SOL    HW1 4318   4.712   3.133   5.437 -1.2217  1.5330 -2.2939
 1334SOL    HW2 4319   4.629   3.006   5.425  0.4528  0.1976 -0.3532
 1335SOL     OW 4320   2.260   4.083   0.241  0.3183 -0.1132 -0.2486
 1335SOL    HW1 4321   2.352   4.110   0.244  0.3932 -0.3841 -0.0651
 1335SOL    HW2 4322   2.216   4.156   0.198  0.4455  0.5238  0.6481
 1336SOL     OW 4323   1.822   2.307   4.244 -0.0600  0.0618 -0.0508
 1336SOL    HW1 4324   1.749   2.255   4.209  0.3203  0.5008 -1.5368
 1336SOL    HW2 4325   1.890   2.243   4.263 -0.9367 -0.4201  1.7981
 1337SOL     OW 4326   2.810   4.216   1.012  0.2296 -0.4150  0.6634
 1337SOL    HW1 4327   2.904   4.218   1.029  0.9481 -3.6915 -1.8704
 1337SOL    HW2 4328   2.771   4.180   1.091  1.3434 -0.7799  1.0612
 1338SOL     OW 4329   3.401   0.151   1.721 -0.2521  0.2514 -0.3465
 1338SOL    HW1 4330   3.354   0.075   1.686  0.9496 -0.7991  0.2633
 1338SOL    HW2 4331   3.334   0.220   1.725 -1.1198 -0.4410 -1.8992
 1339SOL     OW 4332   3.997   3.677   0.767 -0.7078  0.4746  0.0032
 1339SOL    HW1 4333   4.083   3.636   0.777 -1.1274 -1.1017 -2.0790
 1339SOL    HW2 4334   4.016   3.769   0.747  0.4604  0.2897  0.1902
 1340SOL     OW 4335   0.537   4.668   0.752  0.4032 -0.0758 -0.3869
 1340SOL    HW1 4336   0.531   4.720   0.832  0.5582 -0.7503  0.0700
 1340SOL    HW2 4337   0.486   4.589   0.770  0.2042 -0.1081 -1.0576
 1341SOL     OW 4338   3.338   4.785   5.548  0.6009  0.0841 -0.3008
 1341SOL    HW1 4339   3.381   4.710   5.509  0.8104 -0.1698  0.4011
 1341SOL    HW2 4340   3.392   4.807   5.624 -1.7180 -1.7639  2.0776
 1342SOL     OW 4341   5.181   0.139   0.166  0.0630  0.7170  0.0798
 1342SOL    HW1 4342   5.171   0.205   0.234 -0.6184  0.4414  0.2552
 1342SOL    HW2 4343   5.258   0.167   0.117 -0.7216  2.1179 -0.4032
 1343SOL     OW 4344   3.312   5.451   5.059 -0.0257 -0.3438  0.4393
 1343SOL    HW1 4345   3.390   5.467   5.006 -1.7503  1.1874 -1.8022
 1343SOL    HW2 4346   3.298   5.357   5.055  0.3299 -0.3440 -1.1970
 1344SOL     OW 4347   1.334   3.179   0.994 -0.0059 -0.0786 -0.1150
 1344SOL    HW1 4348   1.342   3.252   0.932  2.7845  1.5051  1.8946
 1344SOL    HW2 4349   1.269   3.208   1.057 -1.8907 -1.1488 -1.4716
 1345SOL     OW 4350   3.927   4.887   1.658 -0.6256 -0.5060 -0.0238
 1345SOL    HW1 4351   3.958   4.909   1.746 -0.9614  0.5812 -0.1546
 1345SOL    HW2 4352   3.970   4.804   1.637 -0.0402 -0.4542  0.9084
 1346SOL     OW 4353   1.098   3.380   2.003 -0.1283  0.6731  0.5028
 1346SOL    HW1 4354   1.136   3.305   1.957  0.6458  0.8008  0.9139
 1346SOL    HW2 4355   1.096   3.450   1.938  1.8706  1.1478  0.8827
 1347SOL     OW 4356   5.424   4.716   0.216  0.0229 -0.6510  0.3383
 1347SOL    HW1 4357   5.458   4.633   0.181  1.7893  0.3346 -0.3987
 1347SOL    HW2 4358   5.469   4.726   0.300 -0.6500 -0.7160  0.7144
 1348SOL     OW 4359   1.103   0.657   2.951 -0.6649 -0.1338 -0.0559
 1348SOL    HW1 4360   1.166   0.728   2.938 -0.5970  0.0685  1.3148
 1348SOL    HW2 4361   1.042   0.665   2.877  1.2607 -0.7601 -1.8396
 1349SOL     OW 4362   4.956   4.200   5.482  0.6325 -0.0221  0.1355
 1349SOL    HW1 4363   4.970   4.151   5.563 -0.8230  0.0261  0.4442
 1349SOL    HW2 4364   4.939   4.132   5.416  2.0295 -0.0715 -0.1881
 1350SOL     OW 4365   1.043   3.772   5.371  0.4428  0.0172 -0.4359
 1350SOL    HW1 4366   1.077   3.852   5.331 -0.2925  0.6379  0.1544
 1350SOL    HW2 4367   0.948   3.779   5.361  0.3774 -0.8104 -0.4250
 1351SOL     OW 4368   0.495   5.034   4.073 -0.1420 -0.0256 -0.5042
 1351SOL    HW1 4369   0.418   4.978   4.082  0.1443 -0.2486  0.6941
 1351SOL    HW2 4370   0.497   5.086   4.153  1.9862 -1.3505  0.3847
 1352SOL     OW 4371   5.468   2.685   1.138  0.1373  0.8550  0.3925
 1352SOL    HW1 4372   5.550   2.634   1.137 -0.5857 -0.3717  0.9819
 1352SOL    HW2 4373   5.474   2.742   1.062  1.4973  0.7156  0.3730
 1353SOL     OW 4374   2.156   4.510   1.522 -0.1896  0.4646 -0.2464
 1353SOL    HW1 4375   2.145   4.489   1.614  0.8211 -0.0280 -0.2187
 1353SOL    HW2 4376   2.229   4.573   1.520 -0.6341  0.9785 -0.6550
 1354SOL     OW 4377   3.348   0.420   5.405  0.2627  0.5562  0.1031
 1354SOL    HW1 4378   3.324   0.449   5.493 -0.3437  0.5067 -0.0435
 1354SOL    HW2 4379   3.273   0.370   5.375  1.2914 -1.2411  0.3552
 1355SOL     OW 4380   5.464   1.975   5.326 -0.2469  0.1161 -0.1407
 1355SOL    HW1 4381   5.459   1.880   5.317 -0.8599  0.1615 -0.3685
 1355SOL    HW2 4382   5.494   2.006   5.241  0.8198  0.0727  0.2085
 1356SOL     OW 4383   0.917   0.957   0.553 -0.1217 -0.0681  0.2621
 1356SOL    HW1 4384   0.892   1.049   0.562  0.9183  0.2198  0.3841
 1356SOL    HW2 4385   0.951   0.950   0.464 -0.8356 -0.5016  0.0172
 1357SOL     OW 4386   4.850   4.054   0.582  0.2476  0.3249 -0.1667
 1357SOL    HW1 4387   4.923   4.100   0.540 -0.3704  0.0760 -1.5950
 1357SOL    HW2 4388   4.820   4.113   0.651  0.4718  1.3787 -0.9479
 1358SOL     OW 4389   2.970   0.773   3.385 -0.7265 -0.1661 -0.0384
 1358SOL    HW1 4390   3.051   0.811   3.418 -0.4183 -1.0795  0.2826
 1358SOL    HW2 4391   2.986   0.679   3.383 -1.4618 -0.2947 -0.8408
 1359SOL     OW 4392   0.216   2.002   2.904  0.4031 -0.5201  0.1562
 1359SOL    HW1 4393   0.284   2.035   2.845  1.5974 -3.6054 -0.4125
 1359SOL    HW2 4394   0.164   1.943   2.850 -1.7797  0.4935  1.0103
 1360SOL     OW 4395   5.534   2.502   0.678 -0.2220  0.3306  0.4613
 1360SOL    HW1 4396   5.539   2.477   0.770 -0.4169  0.2782  0.4586
 1360SOL    HW2 4397   5.623   2.529   0.655 -0.4223  1.5596  1.0173
 1361SOL     OW 4398   2.932   4.373   2.785 -0.1069  0.1692  0.0266
 1361SOL    HW1 4399   2.957   4.321   2.862  0.7024  0.4462 -0.0422
 1361SOL    HW2 4400   2.841   4.398   2.802 -0.4299 -1.0381  0.1856
 1362SOL     OW 4401   2.220   2.242   5.052 -0.4322  0.2977 -0.1070
 1362SOL    HW1 4402   2.231   2.246   5.147  1.1241  1.9389 -0.2957
 1362SOL    HW2 4403   2.133   2.278   5.036 -1.6136 -1.9713  0.7726
 1363SOL     OW 4404   4.099   1.079   1.682  0.1128  0.0556  0.0667
 1363SOL    HW1 4405   4.143   1.016   1.739  3.2766  0.7907 -1.3593
 1363SOL    HW2 4406   4.100   1.161   1.730  0.7313  0.1682 -0.1332
 1364SOL     OW 4407   4.469   4.012   2.379  0.0678 -0.5756  0.4422
 1364SOL    HW1 4408   4.501   3.970   2.459 -0.3655  0.0720  0.9678
 1364SOL    HW2 4409   4.402   4.074   2.409 -0.2524 -0.4677 -0.4418
 1365SOL     OW 4410   2.444   4.471   1.890 -0.1534 -0.5335 -0.1796
 1365SOL    HW1 4411   2.419   4.420   1.967 -0.0735 -0.8227 -0.3448
 1365SOL    HW2 4412   2.361   4.505   1.856 -0.2016 -0.5140 -0.0427
 1366SOL     OW 4413   5.443   4.751   1.564 -0.4655 -0.4525  0.5482
 1366SOL    HW1 4414   5.401   4.668   1.540 -1.4244  0.1650  0.0197
 1366SOL    HW2 4415   5.403   4.815   1.505  0.4016  0.3581  0.8252
 1367SOL     OW 4416   2.344   2.913   4.651 -0.1803  0.1051  0.0216
 1367SOL    HW1 4417   2.436   2.899   4.630  0.4013  0.6321  2.0930
 1367SOL    HW2 4418   2.313   2.827   4.682 -0.2003  0.1112  0.0187
 1368SOL     OW 4419   2.509   1.467   1.810 -0.4775  0.0964 -0.1297
 1368SOL    HW1 4420   2.456   1.455   1.732 -0.0625  0.7870 -0.5244
 1368SOL    HW2 4421   2.566   1.541   1.790  1.1036 -1.0145  0.0055
 1369SOL     OW 4422   2.710   3.988   3.293  0.6377 -0.1958  0.5739
 1369SOL    HW1 4423   2.632   4.043   3.293  0.0806 -0.9249 -0.5958
 1369SOL    HW2 4424   2.776   4.041   3.248 -0.1493 -0.7368 -1.3543
 1370SOL     OW 4425   4.982   4.009   4.824 -0.0080  0.5935 -0.2078
 1370SOL    HW1 4426   4.972   4.030   4.731 -0.9220  1.5939  0.0901
 1370SOL    HW2 4427   5.074   4.026   4.843 -0.0792  1.5839 -0.6660
 1371SOL     OW 4428   0.116   4.764   3.473  0.5424 -0.6333  0.0554
 1371SOL    HW1 4429   0.046   4.828   3.463  2.1533  1.3780  0.8681
 1371SOL    HW2 4430   0.139   4.740   3.383  0.3325  0.4512 -0.3060
 1372SOL     OW 4431   1.284   4.846   1.440 -0.1389 -0.0001 -0.4026
 1372SOL    HW1 4432   1.255   4.902   1.368 -1.4643 -1.7211 -1.2641
 1372SOL    HW2 4433   1.334   4.905   1.497 -0.5790  1.8055 -1.7910
 1373SOL     OW 4434   1.467   4.085   2.384 -0.4854  0.1299 -0.0097
 1373SOL    HW1 4435   1.471   3.991   2.404  0.3834 -0.0465 -0.9434
 1373SOL    HW2 4436   1.374   4.102   2.369 -0.5915 -0.6984 -0.3479
 1374SOL     OW 4437   2.788   0.469   0.199  0.0517 -0.3188 -0.6895
 1374SOL    HW1 4438   2.860   0.436   0.252 -0.3884 -0.6116 -0.2676
 1374SOL    HW2 4439   2.762   0.551   0.241  0.1276 -0.2222 -0.8309
 1375SOL     OW 4440   2.657   3.000   3.110 -0.1334 -0.2899 -0.4840
 1375SOL    HW1 4441   2.660   2.955   3.195  0.6223  1.9247  0.7516
 1375SOL    HW2 4442   2.738   2.974   3.066 -0.5300 -1.4564 -0.5652
 1376SOL     OW 4443   3.832   5.545   4.965  0.4123 -0.5888  0.0113
 1376SOL    HW1 4444   3.816   5.574   5.055  0.1649 -2.8387  0.7708
 1376SOL    HW2 4445   3.916   5.499   4.970 -0.5000 -2.3771 -0.4443
 1377SOL     OW 4446   2.303   0.074   5.503 -0.2197  0.1433 -0.0516
 1377SOL    HW1 4447   2.367   0.112   5.443 -0.0014 -0.4035 -0.1687
 1377SOL    HW2 4448   2.352   0.010   5.553 -0.6983 -0.3610 -0.2154
 1378SOL     OW 4449   1.740   0.366   2.316  0.5400  0.0569 -0.0285
 1378SOL    HW1 4450   1.659   0.315   2.315  1.5374 -1.6751  1.5999
 1378SOL    HW2 4451   1.792   0.330   2.244  0.4466  0.2063 -0.1737
 1379SOL     OW 4452   5.274   0.586   3.781  0.1331  0.5642  0.3626
 1379SOL    HW1 4453   5.187   0.607   3.746  0.4664  0.3742 -0.6241
 1379SOL    HW2 4454   5.316   0.536   3.710  1.1823  0.9877  0.6780
 1380SOL     OW 4455   3.762   1.588   2.819  0.1445 -0.5690 -0.1018
 1380SOL    HW1 4456   3.845   1.617   2.858  1.3019 -0.1734 -2.6741
 1380SOL    HW2 4457   3.768   1.493   2.818  0.0105 -0.5980  0.7943
 1381SOL     OW 4458   1.772   1.853   4.317  0.2529  0.4476  0.9342
 1381SOL    HW1 4459   1.823   1.853   4.399 -0.8545  0.6532  1.6425
 1381SOL    HW2 4460   1.686   1.884   4.343  0.0456  1.0742 -0.4334
 1382SOL     OW 4461   1.974   2.297   4.982 -0.0336  0.0220 -0.2076
 1382SOL    HW1 4462   1.951   2.204   4.982  1.1185 -0.2941  1.1358
 1382SOL    HW2 4463   1.909   2.338   4.925  0.2058 -1.7893 -1.9121
 1383SOL     OW 4464   5.478   2.902   5.477 -0.0001 -0.1865 -0.2455
 1383SOL    HW1 4465   5.392   2.861   5.461 -0.2612  0.8584 -1.7563
 1383SOL    HW2 4466   5.535   2.829   5.500 -1.1616 -0.9727  0.2577
 1384SOL     OW 4467   0.499   4.367   0.586  0.5483  0.2188  0.0597
 1384SOL    HW1 4468   0.509   4.418   0.506  0.4933 -0.1130 -0.1628
 1384SOL    HW2 4469   0.548   4.415   0.652 -2.4922  2.6230  0.8169
 1385SOL     OW 4470   4.688   1.722   3.226  0.0777 -0.1443 -0.2831
 1385SOL    HW1 4471   4.646   1.694   3.308 -1.9411 -2.0196 -1.8556
 1385SOL    HW2 4472   4.719   1.641   3.186  1.3087  0.7735 -1.2857
 1386SOL     OW 4473   2.252   2.255   2.659  0.2346 -0.1078 -0.0038
 1386SOL    HW1 4474   2.314   2.197   2.705  2.5623  1.1020 -1.3990
 1386SOL    HW2 4475   2.307   2.325   2.624 -1.6778  0.0837 -2.9445
 1387SOL     OW 4476   0.371   3.444   2.794 -0.6657 -0.2515 -0.2981
 1387SOL    HW1 4477   0.350   3.537   2.791  0.3253  0.1127  1.9187
 1387SOL    HW2 4478   0.289   3.401   2.816 -1.0049  0.1666 -0.7467
 1388SOL     OW 4479   2.358   0.752   1.915  0.2164  0.5123 -0.7235
 1388SOL    HW1 4480   2.274   0.797   1.904 -0.6478 -1.0574 -0.9591
 1388SOL    HW2 4481   2.405   0.803   1.981 -1.5142  0.6524  0.4677
 1389SOL     OW 4482   5.465   5.010   1.011 -0.5291 -0.3426 -0.2377
 1389SOL    HW1 4483   5.373   4.990   0.993 -0.4681 -0.6996 -0.1671
 1389SOL    HW2 4484   5.499   5.042   0.928 -1.2322  1.7878  0.2316
 1390SOL     OW 4485   2.710   1.683   0.299 -0.2073  0.2764 -0.5334
 1390SOL    HW1 4486   2.754   1.609   0.258  0.7050 -0.0216  0.9138
 1390SOL    HW2 4487   2.629   1.646   0.334  0.7586 -0.3352  1.1531
 1391SOL     OW 4488   3.472   4.034   4.452 -0.4403 -0.1638  0.2971
 1391SOL    HW1 4489   3.512   3.956   4.490 -0.8880 -0.2389  0.6319
 1391SOL    HW2 4490   3.511   4.042   4.365  0.0136 -0.4432  0.4733
 1392SOL     OW 4491   4.495   1.363   4.243  0.0605  0.5582  0.3320
 1392SOL    HW1 4492   4.401   1.350   4.251 -0.2800  0.7268 -2.4415
 1392SOL    HW2 4493   4.528   1.279   4.209  0.4797  1.2304 -1.0173
 1393SOL     OW 4494   5.396   0.339   0.880  0.1887 -0.8612 -0.6664
 1393SOL    HW1 4495   5.394   0.360   0.787 -0.3329 -2.5956 -1.0859
 1393SOL    HW2 4496   5.307   0.311   0.900  0.2121 -0.1988  0.4492
 1394SOL     OW 4497   4.121   3.524   5.197  0.3138  0.1283  0.5619
 1394SOL    HW1 4498   4.063   3.512   5.122 -0.8577 -0.3265  1.5006
 1394SOL    HW2 4499   4.201   3.562   5.160 -0.4123  0.3723 -0.8288
 1395SOL     OW 4500   4.296   4.602   1.536 -0.3399 -0.7116  0.0775
 1395SOL    HW1 4501   4.290   4.605   1.440 -0.1519 -0.5621  0.0698
 1395SOL    HW2 4502   4.326   4.513   1.555 -1.7442 -1.2043  0.0755
 1396SOL     OW 4503   3.412   5.369   0.024  0.0543  0.4124 -0.5201
 1396SOL    HW1 4504   3.450   5.453  -0.000 -0.8462  0.6096 -1.3223
 1396SOL    HW2 4505   3.486   5.308   0.022  0.4064  0.8495 -1.6907
 1397SOL     OW 4506   2.157   3.053   0.760  0.1496 -0.0397  0.2734
 1397SOL    HW1 4507   2.181   3.142   0.788 -0.6840  0.5987 -0.9195
 1397SOL    HW2 4508   2.176   3.052   0.666 -0.9997 -0.7087  0.0236
 1398SOL     OW 4509   1.768   1.131   3.140  0.0361  0.2911  0.2867
 1398SOL    HW1 4510   1.685   1.120   3.093  0.0910 -1.3758  0.5369
 1398SOL    HW2 4511   1.747   1.187   3.214 -0.6475  0.6955 -0.2063
 1399SOL     OW 4512   0.261   4.206   4.360  0.1990  0.0463  0.5679
 1399SOL    HW1 4513   0.267   4.292   4.318 -0.5625 -0.5205 -0.7571
 1399SOL    HW2 4514   0.167   4.185   4.358  0.3001 -0.5506  1.4569
 1400SOL     OW 4515   2.761   5.551   2.007  0.5041  0.7309  0.2584
 1400SOL    HW1 4516   2.837   5.582   1.959 -0.4386  0.7251 -1.3045
 1400SOL    HW2 4517   2.703   5.627   2.012  0.4272  0.6297  1.0813
 1401SOL     OW 4518   5.006   4.031   0.154 -0.2700 -0.4460  0.5189
 1401SOL    HW1 4519   5.076   3.967   0.140  0.7468  0.8870 -0.7209
 1401SOL    HW2 4520   5.048   4.104   0.198 -0.9191  0.2942 -0.0584
 1402SOL     OW 4521   4.115   3.280   0.506 -0.2838 -0.0969 -0.1235
 1402SOL    HW1 4522   4.067   3.200   0.484  0.5209 -0.8306  0.7289
 1402SOL    HW2 4523   4.076   3.347   0.449 -1.0829 -1.0442 -0.7345
 1403SOL     OW 4524   1.788   5.077   2.435  0.3053 -0.7378 -0.1477
 1403SOL    HW1 4525   1.808   5.129   2.513  0.2959  0.1797 -0.7389
 1403SOL    HW2 4526   1.694   5.088   2.422  0.3409 -0.7290 -0.4003
 1404SOL     OW 4527   4.143   2.452   0.661 -0.7239  0.4385 -0.0843
 1404SOL    HW1 4528   4.128   2.445   0.567  0.0467  0.4815 -0.2169
 1404SOL    HW2 4529   4.197   2.531   0.671 -0.4906  0.2293  0.3537
 1405SOL     OW 4530   3.760   4.152   3.063  0.2906 -0.2734  0.3710
 1405SOL    HW1 4531   3.665   4.146   3.054  0.4317 -0.6840 -0.9483
 1405SOL    HW2 4532   3.795   4.087   3.003  1.4359  0.7055 -0.0635
 1406SOL     OW 4533   3.565   2.051   0.375  0.2955  0.1829  0.2029
 1406SOL    HW1 4534   3.527   1.997   0.306 -0.3463  1.9019 -0.8552
 1406SOL    HW2 4535   3.577   1.991   0.449  0.3995 -1.5518 -1.1755
 1407SOL     OW 4536   0.862   4.255   0.953  0.1812 -0.6074  0.7947
 1407SOL    HW1 4537   0.881   4.176   1.003  0.0941 -1.0142  0.1904
 1407SOL    HW2 4538   0.934   4.314   0.974  1.3624 -1.5892 -0.3276
 1408SOL     OW 4539   2.709   4.906   4.408  0.0787 -0.0509  0.4972
 1408SOL    HW1 4540   2.651   4.832   4.392  1.2161 -0.4688 -2.1284
 1408SOL    HW2 4541   2.771   4.874   4.474 -0.1801 -1.0320  0.2846
 1409SOL     OW 4542   0.189   4.074   5.438 -0.0109 -0.2023  0.0211
 1409SOL    HW1 4543   0.164   3.981   5.439 -2.2592  0.3457 -0.3430
 1409SOL    HW2 4544   0.224   4.088   5.350 -1.3901 -0.3398 -0.5866
 1410SOL     OW 4545   2.298   0.599   1.698  0.1947 -0.0087 -0.0354
 1410SOL    HW1 4546   2.368   0.537   1.678 -0.2075 -0.2185 -0.8234
 1410SOL    HW2 4547   2.325   0.640   1.781  2.9671  2.3113 -1.8836
 1411SOL     OW 4548   4.331   0.017   1.162  0.5934 -0.3349 -0.0220
 1411SOL    HW1 4549   4.339   0.104   1.201  0.3520 -0.0021 -0.6892
 1411SOL    HW2 4550   4.302  -0.039   1.234  1.7969 -0.0940  0.6751
 1412SOL     OW 4551   4.365   4.681   2.788 -1.2205 -0.1239  0.1275
 1412SOL    HW1 4552   4.439   4.691   2.848 -0.8180 -0.0642 -0.3741
 1412SOL    HW2 4553   4.312   4.611   2.827 -0.4839 -0.7268  0.0660
 1413SOL     OW 4554   4.113   5.407   2.295  0.1000 -0.1441  0.7173
 1413SOL    HW1 4555   4.083   5.413   2.204  1.0846 -0.0371  0.3834
 1413SOL    HW2 4556   4.133   5.498   2.319 -1.4851  0.0361  1.5400
 1414SOL     OW 4557   1.977   2.652   3.805 -0.5531  0.0787  0.2974
 1414SOL    HW1 4558   1.915   2.580   3.819 -1.0031  0.0701 -1.4828
 1414SOL    HW2 4559   1.921   2.729   3.791 -0.1062  0.4216  0.3844
 1415SOL     OW 4560   3.499   2.564   1.116  0.0057 -0.0221 -0.2847
 1415SOL    HW1 4561   3.448   2.508   1.174 -1.4028  1.5072  0.0537
 1415SOL    HW2 4562   3.568   2.508   1.082 -0.4317 -1.5331  1.1870
 1416SOL     OW 4563   4.355   2.545   3.149  0.2015 -0.5132  0.3444
 1416SOL    HW1 4564   4.298   2.483   3.194  0.4608 -0.9116  0.1356
 1416SOL    HW2 4565   4.421   2.490   3.106  0.8904 -0.0491  0.7857
 1417SOL     OW 4566   3.242   1.392   0.343 -0.2313 -0.1600 -0.9947
 1417SOL    HW1 4567   3.307   1.340   0.391  0.1574  1.4114  0.2768
 1417SOL    HW2 4568   3.268   1.385   0.252  1.0834 -0.4598 -0.6213
 1418SOL     OW 4569   4.976   1.522   0.505 -0.6250 -0.4539 -0.6960
 1418SOL    HW1 4570   4.974   1.524   0.409 -0.6540  0.5253 -0.6934
 1418SOL    HW2 4571   5.035   1.593   0.529  0.7874 -1.8227  0.0045
 1419SOL     OW 4572   2.610   4.135   0.847 -0.1146 -0.1613 -0.3852
 1419SOL    HW1 4573   2.594   4.205   0.784 -1.8017  1.0289  1.2584
 1419SOL    HW2 4574   2.684   4.167   0.899  1.0907 -1.0162 -1.5045
 1420SOL     OW 4575   2.463   3.313   3.353  0.3655 -0.0251  0.0906
 1420SOL    HW1 4576   2.500   3.313   3.264 -0.6084 -1.3247 -0.3491
 1420SOL    HW2 4577   2.537   3.335   3.409  0.6964  2.2679 -1.1364
 1421SOL     OW 4578   2.011   1.007   3.086  0.3034 -0.0052 -0.3096
 1421SOL    HW1 4579   2.049   1.031   3.170 -0.4393 -1.7464  0.5769
 1421SOL    HW2 4580   1.921   1.039   3.090 -0.0640 -1.0433  0.0315
 1422SOL     OW 4581   3.372   2.945   1.922 -0.0060  0.1081 -0.5049
 1422SOL    HW1 4582   3.362   3.036   1.896  1.7680  0.2986 -0.6284
 1422SOL    HW2 4583   3.345   2.943   2.014  1.1931  1.0565 -0.1066
 1423SOL     OW 4584   3.861   0.184   3.407 -0.2161  0.1004 -0.2737
 1423SOL    HW1 4585   3.775   0.207   3.373  1.2185  2.1676 -2.8290
 1423SOL    HW2 4586   3.878   0.248   3.476 -0.0775  0.7088 -0.8709
 1424SOL     OW 4587   5.477   4.070   0.325 -0.2161 -0.9507 -0.4831
 1424SOL    HW1 4588   5.466   4.026   0.409 -0.2231 -1.7736 -0.9015
 1424SOL    HW2 4589   5.554   4.029   0.286  1.3196  1.1501  0.1698
 1425SOL     OW 4590   3.294   2.128   5.216  0.0717  0.3540 -0.6120
 1425SOL    HW1 4591   3.232   2.073   5.263 -0.8858  0.7705 -1.3517
 1425SOL    HW2 4592   3.351   2.066   5.170  0.8906 -0.0519  0.8971
 1426SOL     OW 4593   1.705   4.273   0.152  0.5791 -0.0211 -0.2906
 1426SOL    HW1 4594   1.780   4.310   0.106  1.6349 -0.5659  0.9154
 1426SOL    HW2 4595   1.638   4.262   0.085  2.0865 -0.8871 -1.7119
 1427SOL     OW 4596   1.270   3.779   3.121  0.3154  0.1459  0.4517
 1427SOL    HW1 4597   1.179   3.752   3.127  0.5715 -0.9391 -0.1426
 1427SOL    HW2 4598   1.267   3.873   3.104 -0.6525  0.3434  1.6451
 1428SOL     OW 4599   3.446   4.004   0.294  0.3619 -0.9482  0.3221
 1428SOL    HW1 4600   3.427   3.918   0.256  0.1213 -0.8364  0.1875
 1428SOL    HW2 4601   3.542   4.007   0.298  0.5193 -0.1436 -2.2151
 1429SOL     OW 4602   3.934   3.044   2.606 -0.0772  0.3325 -0.1014
 1429SOL    HW1 4603   3.991   2.998   2.668 -0.2175 -1.4301 -1.1904
 1429SOL    HW2 4604   3.892   2.974   2.556  1.5540  1.6037 -3.5856
 1430SOL     OW 4605   1.510   0.940   0.699  0.2481 -0.2527 -0.0528
 1430SOL    HW1 4606   1.606   0.934   0.697  0.2756 -0.1505  0.6597
 1430SOL    HW2 4607   1.480   0.851   0.682  0.4387 -0.0838 -1.4150
 1431SOL     OW 4608   0.655   3.665   3.906  0.4291 -0.2596 -0.6627
 1431SOL    HW1 4609   0.717   3.721   3.953  0.6351 -0.0030 -1.2327
 1431SOL    HW2 4610   0.573   3.675   3.954  0.5190  0.3650 -0.6271
 1432SOL     OW 4611   3.423   1.829   5.246  0.3064 -0.5170  0.2122
 1432SOL    HW1 4612   3.421   1.857   5.154  0.0515  1.1875  0.7199
 1432SOL    HW2 4613   3.505   1.780   5.253  0.7697  0.0913 -0.7153
 1433SOL     OW 4614   1.612   2.710   2.070 -0.0049  0.1989  0.2620
 1433SOL    HW1 4615   1.627   2.689   2.162 -0.7710  1.7350  0.7754
 1433SOL    HW2 4616   1.543   2.776   2.072  0.1131  0.4049 -1.4118
 1434SOL     OW 4617   0.820   2.393   2.433  0.5892  0.0315 -0.4344
 1434SOL    HW1 4618   0.904   2.411   2.389 -0.0215  1.7620 -0.9565
 1434SOL    HW2 4619   0.755   2.438   2.380 -0.4990 -0.0214  0.8131
 1435SOL     OW 4620   0.443   1.147   1.513 -0.3730 -0.1911 -0.3439
 1435SOL    HW1 4621   0.372   1.100   1.469 -0.8460  0.3592 -0.1778
 1435SOL    HW2 4622   0.454   1.101   1.597 -0.9513  0.0891 -0.1084
 1436SOL     OW 4623   5.510   4.065   1.678  0.6407 -0.2420  0.3838
 1436SOL    HW1 4624   5.522   4.046   1.585 -2.2325  1.2733 -0.4278
 1436SOL    HW2 4625   5.417   4.045   1.694  0.3037  2.2796  2.1590
 1437SOL     OW 4626   0.437   1.083   3.618 -0.0370  0.1085 -0.3985
 1437SOL    HW1 4627   0.458   1.119   3.704  0.3211 -0.2054 -0.3555
 1437SOL    HW2 4628   0.515   1.100   3.565 -0.3937  0.6281 -0.7674
 1438SOL     OW 4629   5.035   5.001   1.977  0.3356  0.1936 -0.5058
 1438SOL    HW1 4630   5.111   5.056   1.995  1.2949 -1.6346  1.4075
 1438SOL    HW2 4631   5.070   4.912   1.972 -1.7779 -0.8819  1.7760
 1439SOL     OW 4632   3.597   1.317   0.459  0.0506  0.0527 -0.0179
 1439SOL    HW1 4633   3.652   1.370   0.401 -0.3919  0.6188  0.0703
 1439SOL    HW2 4634   3.646   1.235   0.470  1.0353  0.6753  0.3364
 1440SOL     OW 4635   4.651   3.608   3.678 -0.6082 -0.6066  0.4702
 1440SOL    HW1 4636   4.662   3.581   3.769  1.2628 -2.0171 -0.1075
 1440SOL    HW2 4637   4.609   3.532   3.636  0.1032 -0.6502 -0.1759
 1441SOL     OW 4638   0.658   2.979   1.853 -0.2642 -0.1686  0.5847
 1441SOL    HW1 4639   0.734   3.036   1.839  0.0624 -0.2148  1.9920
 1441SOL    HW2 4640   0.659   2.961   1.947 -0.1741 -2.7535  0.1603
 1442SOL     OW 4641   5.262   1.992   1.885 -0.2011  0.6419 -0.0087
 1442SOL    HW1 4642   5.252   1.980   1.791  2.1853  1.2961 -0.4128
 1442SOL    HW2 4643   5.327   2.062   1.894 -0.0026  0.2620  2.1174
 1443SOL     OW 4644   0.621   5.221   4.804 -0.6033  0.5125 -0.0077
 1443SOL    HW1 4645   0.691   5.190   4.861 -1.0393 -2.0932 -0.7442
 1443SOL    HW2 4646   0.555   5.255   4.865  0.0213  0.1553  0.9006
 1444SOL     OW 4647   0.453   2.438   2.568  0.1948 -0.2154 -0.1851
 1444SOL    HW1 4648   0.417   2.526   2.562 -0.3158 -0.2427  1.8034
 1444SOL    HW2 4649   0.462   2.409   2.477 -0.2113  1.6346 -0.8512
 1445SOL     OW 4650   2.671   5.164   2.308  0.3105 -0.0695  0.9200
 1445SOL    HW1 4651   2.766   5.167   2.300  0.1213  0.4518 -2.8517
 1445SOL    HW2 4652   2.640   5.246   2.268 -1.7414 -1.2883 -0.1929
 1446SOL     OW 4653   0.602   3.056   2.398 -0.2293 -0.0312  0.0820
 1446SOL    HW1 4654   0.570   3.011   2.320  0.9189 -2.0853  0.7218
 1446SOL    HW2 4655   0.539   3.127   2.412 -1.9284 -1.2015 -1.2117
 1447SOL     OW 4656   4.807   5.212   2.351 -0.1147  0.0059  0.2587
 1447SOL    HW1 4657   4.802   5.146   2.281 -0.7721 -0.7062  0.9439
 1447SOL    HW2 4658   4.785   5.163   2.431  2.9878  0.2360  1.3787
 1448SOL     OW 4659   3.599   2.651   2.642  0.1645  0.5401  0.0507
 1448SOL    HW1 4660   3.668   2.625   2.581 -0.0586 -1.0544  0.4099
 1448SOL    HW2 4661   3.518   2.643   2.592  0.0940  0.5277  0.1651
 1449SOL     OW 4662   0.446   2.309   4.690  0.2974 -0.4184 -0.2049
 1449SOL    HW1 4663   0.424   2.388   4.740 -1.3175 -0.1448 -1.2746
 1449SOL    HW2 4664   0.399   2.239   4.735 -0.3257 -0.3405 -0.7261
 1450SOL     OW 4665   2.652   2.631   4.905 -0.2395 -0.7516  0.0786
 1450SOL    HW1 4666   2.565   2.602   4.932 -1.0976 -1.9185 -3.4416
 1450SOL    HW2 4667   2.711   2.563   4.939 -0.7004 -0.2676  1.9729
 1451SOL     OW 4668   1.711   2.272   5.186 -0.2836  0.1135  0.2380
 1451SOL    HW1 4669   1.781   2.235   5.240  0.4343  0.0655 -0.7018
 1451SOL    HW2 4670   1.738   2.362   5.170  0.4922 -0.4052 -1.5980
 1452SOL     OW 4671   3.889   4.360   4.266 -0.0493  0.1686 -0.0119
 1452SOL    HW1 4672   3.836   4.407   4.202  0.2500 -1.4764 -1.5466
 1452SOL    HW2 4673   3.979   4.380   4.241  0.1028  1.1531  1.2091
 1453SOL     OW 4674   0.406   3.470   4.683  0.1706  0.4929 -0.1929
 1453SOL    HW1 4675   0.481   3.432   4.637  0.3921  0.3904  0.2456
 1453SOL    HW2 4676   0.394   3.414   4.759 -0.2171  0.6408 -0.1415
 1454SOL     OW 4677   2.778   0.472   3.779 -0.0842 -0.4056  0.0684
 1454SOL    HW1 4678   2.740   0.553   3.813  0.6711 -0.3950  0.9227
 1454SOL    HW2 4679   2.707   0.432   3.728  0.0720  1.7064 -1.9893
 1455SOL     OW 4680   2.514   2.940   3.529 -0.1704  0.3241 -0.5261
 1455SOL    HW1 4681   2.441   2.994   3.500  2.2840  2.5378 -3.0714
 1455SOL    HW2 4682   2.512   2.863   3.472  0.5038  1.2998 -1.9264
 1456SOL     OW 4683   5.111   0.429   2.695  0.1107  0.5376  0.4226
 1456SOL    HW1 4684   5.111   0.469   2.608 -1.0547  0.4632  0.3738
 1456SOL    HW2 4685   5.082   0.339   2.680 -1.8994  1.0309  1.0731
 1457SOL     OW 4686   2.697   3.390   2.839  1.1122 -0.1062 -0.4586
 1457SOL    HW1 4687   2.673   3.307   2.880  1.3808 -0.4208 -0.9313
 1457SOL    HW2 4688   2.617   3.442   2.842  1.0589 -0.2154  0.2337
 1458SOL     OW 4689   0.282   2.469   3.508  0.1177 -0.4608  0.2705
 1458SOL    HW1 4690   0.368   2.441   3.477  0.4605 -1.1529  1.7416
 1458SOL    HW2 4691   0.270   2.421   3.590 -0.7442  1.2160  1.1716
 1459SOL     OW 4692   0.552   1.877   3.335  0.6919  0.1370 -0.4465
 1459SOL    HW1 4693   0.566   1.859   3.428  0.7473  1.5741 -0.1559
 1459SOL    HW2 4694   0.569   1.793   3.292  2.1169 -0.1949  0.6894
 1460SOL     OW 4695   2.647   0.106   3.085 -0.4793 -0.2278  0.9788
 1460SOL    HW1 4696   2.724   0.163   3.091 -1.7564  1.8659 -0.8014
 1460SOL    HW2 4697   2.572   0.166   3.092 -1.9243 -1.8433  0.2242
 1461SOL     OW 4698   4.501   0.871   1.552  0.2736 -0.0161 -0.2889
 1461SOL    HW1 4699   4.439   0.925   1.504 -0.0040  1.2452  1.4003
 1461SOL    HW2 4700   4.566   0.845   1.487 -0.4841  0.9936 -1.4913
 1462SOL     OW 4701   4.939   3.621   1.416 -0.7609  0.1026 -0.4249
 1462SOL    HW1 4702   5.021   3.577   1.393  0.3110  1.4059  0.6913
 1462SOL    HW2 4703   4.948   3.709   1.381  0.2926  1.6911  3.2673
 1463SOL     OW 4704   4.783   3.496   2.298 -0.1014  0.2400  0.3521
 1463SOL    HW1 4705   4.803   3.583   2.332  1.2759 -0.1245  0.5634
 1463SOL    HW2 4706   4.836   3.489   2.218  0.7675 -0.8180  0.9846
 1464SOL     OW 4707   2.460   4.784   1.998  0.4525 -0.2982  0.6076
 1464SOL    HW1 4708   2.492   4.832   2.074 -2.4397  1.1376  1.0784
 1464SOL    HW2 4709   2.473   4.692   2.021  0.6481  0.1267  2.3776
 1465SOL     OW 4710   5.471   1.187   0.746  0.2083  0.0816 -0.3039
 1465SOL    HW1 4711   5.467   1.281   0.730  0.6242  0.2726  0.6475
 1465SOL    HW2 4712   5.478   1.148   0.659 -0.8442  0.8697 -0.7687
 1466SOL     OW 4713   1.353   1.415   1.148 -0.1303 -0.1256  0.8349
 1466SOL    HW1 4714   1.302   1.413   1.067  0.2012 -0.0783  0.6224
 1466SOL    HW2 4715   1.388   1.326   1.155  0.7462  0.1692  0.3391
 1467SOL     OW 4716   0.643   1.145   3.076  0.3834  0.1630  0.5538
 1467SOL    HW1 4717   0.703   1.185   3.014 -0.4694 -0.7302 -0.9204
 1467SOL    HW2 4718   0.575   1.105   3.021 -0.5421 -0.4615  2.0776
 1468SOL     OW 4719   3.505   0.949   0.224 -0.1986  0.0788 -0.1778
 1468SOL    HW1 4720   3.437   0.952   0.291  1.8783 -0.0131  2.0866
 1468SOL    HW2 4721   3.501   1.036   0.183  0.2020  1.2087  1.9926
 1469SOL     OW 4722   4.185   1.832   2.823  0.2196 -0.1607 -0.4917
 1469SOL    HW1 4723   4.274   1.841   2.789  0.2878  0.9148 -0.0556
 1469SOL    HW2 4724   4.159   1.743   2.798  1.6489 -0.7335 -0.0408
 1470SOL     OW 4725   5.172   2.307   1.741 -0.2391 -0.4907 -0.8825
 1470SOL    HW1 4726   5.262   2.277   1.728 -1.0626 -3.9727  0.3137
 1470SOL    HW2 4727   5.125   2.276   1.664 -0.8673 -1.1416 -0.2618
 1471SOL     OW 4728   2.368   5.364   1.304 -0.0307 -0.1287 -0.6230
 1471SOL    HW1 4729   2.447   5.324   1.338  0.2458 -0.2236 -1.3565
 1471SOL    HW2 4730   2.297   5.313   1.343  0.2851 -0.4184 -0.4184
 1472SOL     OW 4731   3.506   0.750   1.226  0.1032  0.1259 -0.2005
 1472SOL    HW1 4732   3.555   0.742   1.144  1.6767  0.8872  0.6225
 1472SOL    HW2 4733   3.570   0.734   1.295 -1.6715 -3.0892  0.9416
 1473SOL     OW 4734   0.768   0.715   0.563  0.2109  0.0358  0.1561
 1473SOL    HW1 4735   0.844   0.667   0.527  0.5749  0.0251  0.9308
 1473SOL    HW2 4736   0.794   0.807   0.557 -0.8207  0.2604 -2.1199
 1474SOL     OW 4737   5.058   0.869   1.018  0.3123 -0.3449  0.0438
 1474SOL    HW1 4738   5.067   0.805   0.948 -2.3716 -0.1176 -0.5962
 1474SOL    HW2 4739   5.080   0.953   0.977 -0.1220 -0.3600 -0.2255
 1475SOL     OW 4740   5.502   5.301   4.739 -0.1293 -0.2399 -0.2667
 1475SOL    HW1 4741   5.454   5.226   4.702  0.6419 -2.2205  2.3932
 1475SOL    HW2 4742   5.470   5.306   4.830  1.5160  1.2066  0.2745
 1476SOL     OW 4743   1.815   0.695   1.402 -0.5503  0.2012 -0.6334
 1476SOL    HW1 4744   1.771   0.708   1.485 -0.5813  2.3157 -0.9352
 1476SOL    HW2 4745   1.813   0.600   1.388 -1.8247 -0.0561  1.0541
 1477SOL     OW 4746   0.443   4.033   4.136 -0.2261 -0.1386  0.2921
 1477SOL    HW1 4747   0.470   4.088   4.210 -0.7487  0.3526  0.1240
 1477SOL    HW2 4748   0.348   4.045   4.131 -0.2608 -0.5734 -0.1378
 1478SOL     OW 4749   0.655   3.675   2.594  0.3012  0.0741  0.2670
 1478SOL    HW1 4750   0.595   3.749   2.587 -0.7716 -0.7964  0.0938
 1478SOL    HW2 4751   0.697   3.669   2.508 -1.1469 -0.7841 -0.4089
 1479SOL     OW 4752   1.605   2.327   3.123 -0.2477  0.1639  0.5487
 1479SOL    HW1 4753   1.643   2.239   3.127 -0.8278 -0.1213  0.0345
 1479SOL    HW2 4754   1.518   2.317   3.162 -0.2606  0.5406  0.6203
 1480SOL     OW 4755   3.893   2.488   4.435  0.2175  0.7344 -0.2558
 1480SOL    HW1 4756   3.902   2.568   4.487 -1.3836  0.7292  0.1042
 1480SOL    HW2 4757   3.811   2.449   4.465  0.8529 -0.9488 -0.5804
 1481SOL     OW 4758   0.952   0.936   3.847  0.6730 -0.0566 -0.1931
 1481SOL    HW1 4759   0.872   0.989   3.838  1.1949  0.8830  0.6246
 1481SOL    HW2 4760   1.023   0.999   3.850  1.2494 -0.7273  1.7523
 1482SOL     OW 4761   5.371   0.750   4.433  0.2982 -0.1953  0.8581
 1482SOL    HW1 4762   5.283   0.751   4.470 -0.6748  0.7143 -1.2506
 1482SOL    HW2 4763   5.383   0.661   4.401 -0.0667 -0.1939  0.7128
 1483SOL     OW 4764   4.802   2.920   4.017 -0.1468  0.6020  0.5543
 1483SOL    HW1 4765   4.722   2.874   3.992  0.7675 -0.0803 -1.3462
 1483SOL    HW2 4766   4.821   2.890   4.106 -1.4061 -0.0633  0.6138
 1484SOL     OW 4767   3.320   3.746   5.167 -0.9317  0.3235 -0.1574
 1484SOL    HW1 4768   3.298   3.825   5.217  0.7510  0.9280 -0.2855
 1484SOL    HW2 4769   3.384   3.776   5.103 -2.9374 -0.4636 -2.6586
 1485SOL     OW 4770   4.758   2.234   4.619  0.3083  0.1347 -0.1467
 1485SOL    HW1 4771   4.745   2.308   4.678  0.3847  1.0849 -1.2850
 1485SOL    HW2 4772   4.779   2.161   4.677  0.7209  1.1087  0.9806
 1486SOL     OW 4773   5.182   1.394   1.408 -0.2157 -0.1821  0.2383
 1486SOL    HW1 4774   5.087   1.394   1.392  0.3309  1.1309 -4.2287
 1486SOL    HW2 4775   5.212   1.310   1.375  0.4762  0.6967 -1.4705
 1487SOL     OW 4776   0.684   1.600   0.659  0.6686  0.7598 -0.0725
 1487SOL    HW1 4777   0.773   1.626   0.683  1.3199 -1.7215  0.4981
 1487SOL    HW2 4778   0.695   1.548   0.579 -0.3975  1.1579 -0.4979
 1488SOL     OW 4779   1.806   3.499   1.049  0.4093  0.5305  0.4176
 1488SOL    HW1 4780   1.773   3.449   0.974  0.5927  1.7511 -0.4945
 1488SOL    HW2 4781   1.892   3.460   1.068  0.6478  0.6363 -0.4244
 1489SOL     OW 4782   0.546   2.407   0.607  0.0325 -0.3195 -0.1373
 1489SOL    HW1 4783   0.604   2.405   0.531  1.5024  3.2991  0.6867
 1489SOL    HW2 4784   0.591   2.356   0.674  0.5639 -0.3959 -0.5451
 1490SOL     OW 4785   1.921   3.256   5.385  0.1629  1.1528 -0.2577
 1490SOL    HW1 4786   1.854   3.244   5.452  1.3100 -0.9736  0.6095
 1490SOL    HW2 4787   1.883   3.219   5.306  0.3881 -0.3724  0.3127
 1491SOL     OW 4788   2.388   4.986   0.927  0.8231 -0.2440 -0.1824
 1491SOL    HW1 4789   2.323   5.041   0.883 -0.1142 -0.4652  0.8766
 1491SOL    HW2 4790   2.431   4.938   0.855 -1.1848 -1.1553 -0.8569
 1492SOL     OW 4791   0.206   4.804   3.729 -0.3643 -0.0671 -0.1442
 1492SOL    HW1 4792   0.253   4.721   3.740 -0.7105 -0.1077  1.3412
 1492SOL    HW2 4793   0.155   4.792   3.649  0.3524 -0.9104 -0.4915
 1493SOL     OW 4794   0.183   3.566   5.065  0.2340 -0.5135 -0.2188
 1493SOL    HW1 4795   0.175   3.482   5.018 -0.4650 -0.7605  0.3177
 1493SOL    HW2 4796   0.191   3.541   5.157 -0.8466  0.0232  0.0360
 1494SOL     OW 4797   5.397   1.456   0.858 -0.4410  0.0813  0.4460
 1494SOL    HW1 4798   5.334   1.517   0.817  0.5792 -0.0766 -1.4786
 1494SOL    HW2 4799   5.477   1.507   0.865  0.1579 -0.7283 -0.3166
 1495SOL     OW 4800   4.917   3.026   0.255 -0.2916  0.1745  0.0033
 1495SOL    HW1 4801   4.925   2.962   0.184  1.6846 -0.4696  0.7361
 1495SOL    HW2 4802   4.825   3.052   0.253 -0.0262  1.4475 -3.8199
 1496SOL     OW 4803   3.759   2.768   2.133 -0.1742 -0.2141  0.1928
 1496SOL    HW1 4804   3.689   2.730   2.080  0.1145  0.4496 -0.6868
 1496SOL    HW2 4805   3.748   2.863   2.122  1.8343 -0.0968 -1.2955
 1497SOL     OW 4806   1.380   1.833   0.393 -0.6092  0.4155 -0.3364
 1497SOL    HW1 4807   1.352   1.920   0.364 -0.5910 -0.0229 -1.7173
 1497SOL    HW2 4808   1.319   1.773   0.350  1.0252 -0.4197 -1.5968
 1498SOL     OW 4809   4.250   4.625   1.276  0.0121  0.1259  0.1066
 1498SOL    HW1 4810   4.253   4.553   1.214  1.3152  0.0104  0.2738
 1498SOL    HW2 4811   4.182   4.683   1.243 -0.5009 -0.7859 -0.4663
 1499SOL     OW 4812   3.062   3.882   1.831  0.3021  0.0249  0.4729
 1499SOL    HW1 4813   2.986   3.927   1.793  1.1239  0.4359 -0.7556
 1499SOL    HW2 4814   3.135   3.943   1.818  1.2578 -1.2381 -0.3530
 1500SOL     OW 4815   2.048   1.148   0.439 -0.3702  0.4801  0.6031
 1500SOL    HW1 4816   2.010   1.115   0.521 -1.5035 -1.2114 -0.5241
 1500SOL    HW2 4817   2.062   1.069   0.386  2.4705  1.3081 -0.0121
 1501SOL     OW 4818   1.708   5.004   3.566  0.1197  0.2926  0.4617
 1501SOL    HW1 4819   1.761   5.080   3.589  0.4715  0.7226 -1.5857
 1501SOL    HW2 4820   1.657   5.032   3.490  1.5286 -2.0034 -1.4580
 1502SOL     OW 4821   4.566   1.770   1.460  0.2801 -0.3577  0.2461
 1502SOL    HW1 4822   4.564   1.865   1.445 -0.8708 -0.4662 -0.3707
 1502SOL    HW2 4823   4.521   1.733   1.384  2.0896 -1.5247 -0.3181
 1503SOL     OW 4824   0.048   3.394   2.610 -0.5045 -0.1442 -0.0967
 1503SOL    HW1 4825   0.030   3.380   2.517 -0.3297 -0.1013 -0.1373
 1503SOL    HW2 4826  -0.026   3.444   2.642 -0.9193 -0.7698 -0.0533
 1504SOL     OW 4827   5.260   4.307   3.818 -0.2575  0.3281 -0.0046
 1504SOL    HW1 4828   5.342   4.285   3.862 -1.8438 -3.7077  1.3638
 1504SOL    HW2 4829   5.210   4.356   3.883  0.0108  0.3856  0.1592
 1505SOL     OW 4830   2.637   4.818   3.739 -0.1989  0.7987 -0.1927
 1505SOL    HW1 4831   2.575   4.796   3.670 -0.2706 -0.0415  0.1368
 1505SOL    HW2 4832   2.691   4.887   3.701 -0.8821  1.0459 -0.7277
 1506SOL     OW 4833   4.300   0.112   0.875 -0.3099 -0.5115 -0.1695
 1506SOL    HW1 4834   4.392   0.127   0.898  0.2237 -1.3731 -1.6183
 1506SOL    HW2 4835   4.262   0.072   0.953  0.5205 -0.0892  0.4722
 1507SOL     OW 4836   5.080   5.508   2.123 -0.1859 -0.3895  0.7077
 1507SOL    HW1 4837   5.010   5.491   2.061 -1.4793  0.8484  1.7661
 1507SOL    HW2 4838   5.110   5.421   2.150 -2.5271 -1.0204  1.5307
 1508SOL     OW 4839   5.010   1.285   1.095 -0.4676 -0.1775  0.8061
 1508SOL    HW1 4840   5.081   1.234   1.055  1.7786  2.5627  0.9382
 1508SOL    HW2 4841   4.997   1.245   1.181  0.2605 -1.3296  0.3931
 1509SOL     OW 4842   4.366   4.388   0.829  0.5881  0.0789  0.0990
 1509SOL    HW1 4843   4.368   4.420   0.919 -3.8359 -0.4772  0.5930
 1509SOL    HW2 4844   4.304   4.445   0.784 -1.4736 -2.8540 -1.0726
 1510SOL     OW 4845   2.595   2.024   4.597 -0.0667 -0.0878 -0.9050
 1510SOL    HW1 4846   2.511   1.992   4.629  0.2289 -1.5139 -1.4828
 1510SOL    HW2 4847   2.645   1.945   4.579  1.5272  0.7377 -0.2738
 1511SOL     OW 4848   1.454   4.004   1.046  0.0589 -0.1714  0.5324
 1511SOL    HW1 4849   1.475   4.095   1.021  0.2391 -0.3089  0.1766
 1511SOL    HW2 4850   1.380   4.012   1.106 -0.8481  0.1247 -0.5900
 1512SOL     OW 4851   3.167   2.207   0.703  0.2841  0.5348 -0.3850
 1512SOL    HW1 4852   3.142   2.296   0.678 -0.5460  0.3106 -0.3906
 1512SOL    HW2 4853   3.085   2.166   0.731  0.2830 -0.7989 -2.1425
 1513SOL     OW 4854   4.717   3.014   3.122  0.5237 -0.0648  0.2976
 1513SOL    HW1 4855   4.743   3.015   3.214 -1.7374 -0.4481  0.9982
 1513SOL    HW2 4856   4.799   2.998   3.074  1.5496 -1.1695  2.2944
 1514SOL     OW 4857   4.535   3.571   4.744 -0.8498 -0.7511  0.2391
 1514SOL    HW1 4858   4.504   3.661   4.759 -0.2754  0.0819 -2.8503
 1514SOL    HW2 4859   4.456   3.519   4.736 -1.2648 -0.0716 -0.1755
 1515SOL     OW 4860   2.392   3.079   3.193 -0.2477 -0.2269 -0.4690
 1515SOL    HW1 4861   2.445   3.004   3.167 -2.4019 -1.4213 -1.7624
 1515SOL    HW2 4862   2.359   3.055   3.279 -0.2942 -0.4184 -0.5379
 1516SOL     OW 4863   2.086   3.346   4.624 -0.0949  0.0284  0.4777
 1516SOL    HW1 4864   2.097   3.262   4.670  0.3197  0.1020  0.5205
 1516SOL    HW2 4865   2.105   3.326   4.533  1.7154  0.4052  0.7299
 1517SOL     OW 4866   2.409   3.435   0.311 -0.2144  0.9099 -0.0460
 1517SOL    HW1 4867   2.444   3.521   0.289  2.2069  0.0151  0.0473
 1517SOL    HW2 4868   2.458   3.374   0.255 -1.4036 -0.4814  0.3622
 1518SOL     OW 4869   1.274   3.819   3.597  0.1361 -0.8116 -0.1823
 1518SOL    HW1 4870   1.308   3.827   3.508 -0.1852 -1.0243 -0.3276
 1518SOL    HW2 4871   1.179   3.830   3.587  0.3616  3.7632  0.6734
 1519SOL     OW 4872   0.197   1.335   4.769 -0.5393 -0.0846 -0.5105
 1519SOL    HW1 4873   0.258   1.392   4.722  0.9637 -1.3180 -0.1304
 1519SOL    HW2 4874   0.183   1.379   4.853  1.8555 -0.9434  0.4258
 1520SOL     OW 4875   5.100   0.956   2.864 -0.2526  0.0363  0.0126
 1520SOL    HW1 4876   5.030   0.898   2.892 -1.7026  1.7417  0.0552
 1520SOL    HW2 4877   5.115   1.013   2.940 -0.4103  1.1431 -0.7676
 1521SOL     OW 4878   3.729   2.808   2.831 -0.5427 -0.5386 -0.0520
 1521SOL    HW1 4879   3.783   2.745   2.879  0.1724 -0.5644 -0.8514
 1521SOL    HW2 4880   3.692   2.756   2.759  0.1991 -0.0208 -0.8236
 1522SOL     OW 4881   5.095   0.479   2.436  0.4331 -0.2092 -0.0508
 1522SOL    HW1 4882   5.151   0.508   2.364  1.1405  0.6166  0.8101
 1522SOL    HW2 4883   5.006   0.486   2.401  0.7487  0.4350 -0.7676
 1523SOL     OW 4884   4.016   0.359   0.732  0.4167  0.3294  0.1552
 1523SOL    HW1 4885   4.044   0.273   0.700  0.1981  0.4211 -0.2818
 1523SOL    HW2 4886   4.059   0.368   0.818  1.4625  0.3207 -0.3546
 1524SOL     OW 4887   4.777   1.323   0.277 -0.0325 -0.6948  0.3940
 1524SOL    HW1 4888   4.703   1.337   0.336 -1.3060 -1.0835 -1.0386
 1524SOL    HW2 4889   4.810   1.411   0.258 -0.7658 -0.4380  0.2808
 1525SOL     OW 4890   2.839   5.203   3.665 -0.0164 -0.3583 -0.6693
 1525SOL    HW1 4891   2.861   5.210   3.572  1.3323 -0.3985 -0.3733
 1525SOL    HW2 4892   2.886   5.125   3.695  0.9136  0.5869  0.4082
 1526SOL     OW 4893   1.214   3.864   2.465  0.4250 -0.0598  0.4890
 1526SOL    HW1 4894   1.175   3.951   2.451 -0.1855 -0.4753 -0.4784
 1526SOL    HW2 4895   1.248   3.868   2.554  1.5774  1.6236  0.0299
 1527SOL     OW 4896   2.830   4.177   3.571 -0.5541  0.2382  0.2525
 1527SOL    HW1 4897   2.753   4.191   3.517 -0.2880 -0.3326 -0.2967
 1527SOL    HW2 4898   2.861   4.264   3.593 -0.0930  0.5280 -1.3692
 1528SOL     OW 4899   4.711   1.518   0.569  0.3821  0.8857 -0.0794
 1528SOL    HW1 4900   4.706   1.574   0.646  1.1425  1.2091 -0.2635
 1528SOL    HW2 4901   4.804   1.514   0.547  0.6508 -2.1589  1.1668
 1529SOL     OW 4902   2.972   4.623   0.415  0.1389 -0.7429  0.1368
 1529SOL    HW1 4903   2.914   4.547   0.426 -0.7673  0.1131  1.6484
 1529SOL    HW2 4904   2.947   4.661   0.331 -0.1791 -1.4717 -0.1064
 1530SOL     OW 4905   0.588   2.014   0.365  0.3011 -0.3875 -0.0802
 1530SOL    HW1 4906   0.622   1.963   0.438 -1.3090  0.3759  1.2551
 1530SOL    HW2 4907   0.500   2.039   0.391 -0.0982  0.4556 -2.0216
 1531SOL     OW 4908   1.610   5.307   0.542 -0.1945  0.6762  0.5472
 1531SOL    HW1 4909   1.526   5.338   0.575 -0.7869 -1.1990  0.9477
 1531SOL    HW2 4910   1.588   5.226   0.494  1.3062  0.4771  0.1491
 1532SOL     OW 4911   0.020   2.571   4.076  0.0489 -0.0183 -0.2198
 1532SOL    HW1 4912   0.054   2.569   4.165  1.1258  0.0756 -0.6117
 1532SOL    HW2 4913  -0.059   2.518   4.079  0.9799 -1.4149  0.4318
 1533SOL     OW 4914   1.781   4.238   1.712 -0.2326 -0.0740  0.1570
 1533SOL    HW1 4915   1.865   4.222   1.756  1.1048 -0.7625 -2.4366
 1533SOL    HW2 4916   1.803   4.296   1.640 -1.7506 -1.1968 -1.2731
 1534SOL     OW 4917   2.343   0.497   5.535  0.1504  0.4270 -0.5256
 1534SOL    HW1 4918   2.430   0.461   5.557  0.7186  1.5718 -0.8377
 1534SOL    HW2 4919   2.344   0.502   5.439 -0.9915 -1.2824 -0.6743
 1535SOL     OW 4920   1.589   5.488   3.784 -0.9137 -0.6343 -0.1212
 1535SOL    HW1 4921   1.584   5.506   3.878  0.8969  0.8196 -0.2343
 1535SOL    HW2 4922   1.529   5.551   3.744  1.0151  1.3270 -0.1141
 1536SOL     OW 4923   1.681   4.576   5.171 -0.2514  0.1765 -0.1028
 1536SOL    HW1 4924   1.765   4.551   5.210 -0.2321  0.5281  0.0838
 1536SOL    HW2 4925   1.690   4.670   5.154 -1.2897  0.6268  1.6624
 1537SOL     OW 4926   3.245   5.477   1.136 -0.3011 -0.3080  0.6897
 1537SOL    HW1 4927   3.251   5.465   1.231 -0.0934  0.4583  0.7720
 1537SOL    HW2 4928   3.240   5.387   1.102 -0.5090 -0.5888  1.4287
 1538SOL     OW 4929   2.231   0.197   4.620  0.2327  0.2434  0.5020
 1538SOL    HW1 4930   2.296   0.128   4.614 -0.1551 -0.0528 -0.5771
 1538SOL    HW2 4931   2.149   0.154   4.595  0.1348  1.2684 -1.1162
 1539SOL     OW 4932   4.749   0.068   0.642 -0.0559  0.2833  0.5488
 1539SOL    HW1 4933   4.793  -0.017   0.647  0.1540  0.2889 -0.9790
 1539SOL    HW2 4934   4.655   0.047   0.648  0.0330  0.0991  1.6577
 1540SOL     OW 4935   4.310   3.719   1.784 -0.8175 -0.3978 -0.1996
 1540SOL    HW1 4936   4.363   3.749   1.711 -0.0660 -0.6357  0.2375
 1540SOL    HW2 4937   4.268   3.638   1.753  0.5564 -1.2434  0.0695
 1541SOL     OW 4938   3.058   4.960   4.416 -0.5836  0.4839  0.1629
 1541SOL    HW1 4939   3.022   4.872   4.432 -0.2734  0.2705 -0.3031
 1541SOL    HW2 4940   3.000   5.019   4.465 -0.9770  0.0483  0.2247
 1542SOL     OW 4941   5.035   0.680   3.690  0.1555  0.1454 -0.0855
 1542SOL    HW1 4942   5.003   0.737   3.620 -1.2315 -0.3924  0.0671
 1542SOL    HW2 4943   5.020   0.730   3.770 -1.8224 -0.6655  0.1246
 1543SOL     OW 4944   2.359   3.660   3.757 -0.2950 -0.3118 -0.0128
 1543SOL    HW1 4945   2.388   3.747   3.782  0.1864 -0.0374 -1.4213
 1543SOL    HW2 4946   2.338   3.616   3.840  2.3172  0.1165  0.9689
 1544SOL     OW 4947   4.727   3.546   3.959 -0.0603 -0.6560 -0.1462
 1544SOL    HW1 4948   4.819   3.525   3.974 -0.4175 -1.2605  1.4390
 1544SOL    HW2 4949   4.710   3.622   4.015 -0.3828 -0.2023 -0.8581
 1545SOL     OW 4950   2.444   0.551   2.063 -0.4476 -1.1509  0.0184
 1545SOL    HW1 4951   2.535   0.526   2.047 -0.4579 -1.0989 -0.1223
 1545SOL    HW2 4952   2.427   0.623   2.003 -0.6965 -1.4087 -0.2240
 1546SOL     OW 4953   5.203   2.795   2.228 -0.4337  0.1056  0.4994
 1546SOL    HW1 4954   5.150   2.801   2.307  1.1275 -0.4751  1.6590
 1546SOL    HW2 4955   5.291   2.822   2.256 -0.1711  1.4368 -1.4335
 1547SOL     OW 4956   0.164   3.850   1.350  0.3317 -0.2136  0.5823
 1547SOL    HW1 4957   0.239   3.909   1.359  0.4488 -0.0556 -1.0682
 1547SOL    HW2 4958   0.090   3.908   1.335  0.2816 -0.4423 -0.0789
 1548SOL     OW 4959   1.284   0.367   3.941 -0.0591 -0.1357  0.2015
 1548SOL    HW1 4960   1.315   0.342   4.028  1.0219  0.5923  0.0531
 1548SOL    HW2 4961   1.198   0.326   3.933 -0.1060 -0.3475  1.5449
 1549SOL     OW 4962   2.709   3.861   1.774  0.2962 -0.0266 -0.2488
 1549SOL    HW1 4963   2.664   3.945   1.780  1.4099  0.5319  0.7314
 1549SOL    HW2 4964   2.669   3.807   1.842 -1.6281 -0.9463 -1.9945
 1550SOL     OW 4965   4.795   2.241   4.914  0.8839  0.6518  0.7982
 1550SOL    HW1 4966   4.753   2.250   4.999  0.9583 -0.0251  0.9096
 1550SOL    HW2 4967   4.763   2.316   4.863 -1.0345 -0.2120  0.6328
 1551SOL     OW 4968   5.207   0.947   5.376 -0.2291  0.5889  0.2785
 1551SOL    HW1 4969   5.144   0.979   5.312 -1.9165  0.2889  1.7313
 1551SOL    HW2 4970   5.156   0.931   5.455  1.6372  0.1315  1.4622
 1552SOL     OW 4971   3.395   0.906   3.913 -0.2836  0.0724 -0.2199
 1552SOL    HW1 4972   3.366   0.904   4.004 -0.4181  0.1977 -0.2596
 1552SOL    HW2 4973   3.424   0.817   3.895 -1.3148 -0.2497 -0.3909
 1553SOL     OW 4974   2.295   4.969   1.219 -0.0231  0.7272  0.4087
 1553SOL    HW1 4975   2.355   4.907   1.263 -0.7540  0.6463  1.3118
 1553SOL    HW2 4976   2.336   4.984   1.134  0.9648  0.1823  0.7602
 1554SOL     OW 4977   1.575   1.688   1.666  1.0738  0.4848 -0.3491
 1554SOL    HW1 4978   1.490   1.688   1.710  1.1937  2.6487 -0.0205
 1554SOL    HW2 4979   1.556   1.665   1.575  0.5851 -2.1336  0.3330
 1555SOL     OW 4980   4.868   3.365   3.492  0.7709  0.2740  0.0980
 1555SOL    HW1 4981   4.879   3.451   3.531  1.6484  0.3818 -0.3622
 1555SOL    HW2 4982   4.802   3.322   3.547  0.8885  0.9529  0.7850
 1556SOL     OW 4983   0.009   4.850   3.068 -0.3584  0.6095  0.5222
 1556SOL    HW1 4984   0.000   4.897   3.151 -0.1552  1.1113  0.2632
 1556SOL    HW2 4985  -0.047   4.898   3.007 -0.1544  0.5179  0.2585
 1557SOL     OW 4986   5.418   1.852   0.902  0.1375 -0.3116 -0.4177
 1557SOL    HW1 4987   5.496   1.796   0.906 -0.5526 -1.2970 -0.3325
 1557SOL    HW2 4988   5.443   1.924   0.845  2.3019  1.2884  2.2985
 1558SOL     OW 4989   2.653   4.412   2.687  0.5447  0.1065 -0.1108
 1558SOL    HW1 4990   2.673   4.363   2.607  2.0052  1.9891 -0.9819
 1558SOL    HW2 4991   2.557   4.418   2.688  0.4035 -1.5051 -0.6944
 1559SOL     OW 4992   4.688   3.602   4.513 -0.2375  0.2806  0.0189
 1559SOL    HW1 4993   4.734   3.518   4.508  1.2414  0.8831  2.0942
 1559SOL    HW2 4994   4.632   3.593   4.591 -1.8724  0.4410 -1.0762
 1560SOL     OW 4995   0.371   5.329   1.955  0.0621  0.2605  0.1625
 1560SOL    HW1 4996   0.449   5.385   1.955 -1.0940  2.0322  2.4023
 1560SOL    HW2 4997   0.309   5.374   1.897 -0.1215  0.1406  0.2643
 1561SOL     OW 4998   1.026   3.929   0.511  0.4191 -0.1523 -0.2046
 1561SOL    HW1 4999   1.113   3.890   0.499  0.4878 -0.4138  0.9473
 1561SOL    HW2 5000   0.965   3.863   0.478  0.5699 -0.9705  1.0862
 1562SOL     OW 5001   4.129   4.387   5.007 -0.4782 -0.1933  0.5846
 1562SOL    HW1 5002   4.206   4.384   5.063  0.3239 -0.4353 -0.5076
 1562SOL    HW2 5003   4.114   4.480   4.991 -1.8065  0.0040  2.6266
 1563SOL     OW 5004   2.821   4.601   2.524  0.3010  0.0743 -0.1610
 1563SOL    HW1 5005   2.786   4.532   2.581  1.8764 -0.7473 -0.1545
 1563SOL    HW2 5006   2.810   4.567   2.435  0.5860  0.0439 -0.1852
 1564SOL     OW 5007   2.978   4.358   1.476 -0.4089 -0.4480 -0.3126
 1564SOL    HW1 5008   3.034   4.419   1.429 -0.7409 -0.0302 -0.1757
 1564SOL    HW2 5009   2.926   4.414   1.535 -0.4279 -0.9010  0.1050
 1565SOL     OW 5010   1.094   1.063   2.781  0.2344 -0.0341 -1.1775
 1565SOL    HW1 5011   1.144   1.115   2.719 -1.2995 -0.9691 -3.3085
 1565SOL    HW2 5012   1.057   0.992   2.729 -2.3713 -0.0243  0.4583
 1566SOL     OW 5013   4.225   2.819   0.277 -0.0105  0.0650  0.5358
 1566SOL    HW1 5014   4.284   2.747   0.299  0.9676  0.9590  0.9867
 1566SOL    HW2 5015   4.267   2.896   0.316 -0.8707  0.9236 -0.1824
 1567SOL     OW 5016   4.696   2.543   1.041 -0.1382  0.3580  0.4549
 1567SOL    HW1 5017   4.645   2.592   0.978 -1.2495  0.2845  1.2586
 1567SOL    HW2 5018   4.631   2.493   1.091  0.8517 -1.0107  0.4456
 1568SOL     OW 5019   5.243   3.962   0.599 -0.2382 -0.7485  0.1092
 1568SOL    HW1 5020   5.207   3.883   0.639 -1.0340  0.0705  1.0622
 1568SOL    HW2 5021   5.309   3.993   0.661  0.7250 -1.1378 -0.6862
 1569SOL     OW 5022   1.316   3.056   3.664 -0.4534  0.0714  0.4881
 1569SOL    HW1 5023   1.355   2.971   3.681 -0.7830  0.2175  2.0524
 1569SOL    HW2 5024   1.383   3.119   3.688 -0.1146  0.2896 -0.9017
 1570SOL     OW 5025   4.003   2.078   3.701 -0.0137  0.2877  0.6595
 1570SOL    HW1 5026   4.085   2.128   3.691 -1.3943  2.7845  1.0008
 1570SOL    HW2 5027   3.939   2.128   3.651 -1.6776 -0.6862  1.7509
 1571SOL     OW 5028   3.784   1.505   0.298  0.2988 -0.0726  0.5573
 1571SOL    HW1 5029   3.801   1.557   0.377 -0.6918 -0.2742  0.9200
 1571SOL    HW2 5030   3.852   1.532   0.236  0.3118  1.0359  1.0299
 1572SOL     OW 5031   1.559   3.666   4.302  0.7100  0.6358  0.2988
 1572SOL    HW1 5032   1.606   3.687   4.222 -0.9010 -1.1353 -1.2075
 1572SOL    HW2 5033   1.474   3.708   4.293  0.0403 -0.6142  0.4383
 1573SOL     OW 5034   3.489   1.174   4.078 -0.1117 -0.6629  0.2266
 1573SOL    HW1 5035   3.407   1.165   4.028 -0.3347 -0.7787  0.6073
 1573SOL    HW2 5036   3.475   1.253   4.130  0.4772 -0.0181 -0.5583
 1574SOL     OW 5037   0.471   5.157   2.950 -0.0067 -0.0463 -0.2510
 1574SOL    HW1 5038   0.467   5.066   2.980 -0.4887  0.6839  2.0164
 1574SOL    HW2 5039   0.564   5.180   2.957 -0.0943  0.0760  0.6031
 1575SOL     OW 5040   5.502   3.964   2.186 -0.3597  0.1324 -0.2556
 1575SOL    HW1 5041   5.517   4.017   2.108  1.2175  0.8057  0.4676
 1575SOL    HW2 5042   5.530   3.876   2.161 -0.3196  0.2383 -0.5807
 1576SOL     OW 5043   4.394   0.228   3.398 -0.2758 -0.2629  0.1581
 1576SOL    HW1 5044   4.381   0.250   3.306  2.2811 -0.0007 -0.2376
 1576SOL    HW2 5045   4.416   0.135   3.397 -3.9382 -1.2982  1.0286
 1577SOL     OW 5046   3.478   4.091   3.016  0.1771  0.5047 -0.0200
 1577SOL    HW1 5047   3.462   4.182   3.041 -0.4590  0.6807 -1.0047
 1577SOL    HW2 5048   3.433   4.081   2.933 -0.4770 -0.9624  0.4805
 1578SOL     OW 5049   0.143   5.170   1.076 -0.0810  0.2831 -0.0075
 1578SOL    HW1 5050   0.055   5.184   1.042 -0.3799  0.4212  0.8282
 1578SOL    HW2 5051   0.132   5.114   1.152  0.5966 -0.0223 -0.1165
 1579SOL     OW 5052   4.820   3.482   2.643  0.2017 -0.3974 -0.4173
 1579SOL    HW1 5053   4.802   3.432   2.723 -0.0049  0.4811  0.0994
 1579SOL    HW2 5054   4.777   3.433   2.573 -1.0256 -0.3229  0.2533
 1580SOL     OW 5055   3.652   4.582   4.411  0.2325  0.1432 -0.1573
 1580SOL    HW1 5056   3.739   4.620   4.423 -1.1126  3.7728 -0.6145
 1580SOL    HW2 5057   3.627   4.607   4.321 -0.7819 -2.0095 -0.5300
 1581SOL     OW 5058   1.901   1.044   4.039  0.1105  0.3914  0.5823
 1581SOL    HW1 5059   1.814   1.004   4.032  0.4769 -0.1004 -2.2398
 1581SOL    HW2 5060   1.894   1.102   4.115 -1.9803 -1.2644  1.7750
 1582SOL     OW 5061   2.348   0.782   2.374 -0.0437 -0.4591  0.2617
 1582SOL    HW1 5062   2.285   0.798   2.304 -0.1973 -1.4998  0.1567
 1582SOL    HW2 5063   2.316   0.704   2.418  1.6719 -1.5662 -0.3715
 1583SOL     OW 5064   2.191   0.568   2.571 -0.2694  0.0938  0.3572
 1583SOL    HW1 5065   2.216   0.503   2.505  0.7464  0.5287  0.2921
 1583SOL    HW2 5066   2.180   0.517   2.652 -0.1617 -0.2596  0.1497
 1584SOL     OW 5067   1.093   4.189   0.381 -0.1430 -0.6249 -0.2633
 1584SOL    HW1 5068   1.183   4.216   0.401 -0.3473  1.9088 -2.2985
 1584SOL    HW2 5069   1.089   4.097   0.408  2.6471 -0.4537  1.0689
 1585SOL     OW 5070   4.460   3.399   0.710  0.0737  0.1637  0.5849
 1585SOL    HW1 5071   4.503   3.471   0.663  2.5479 -0.4443  1.7713
 1585SOL    HW2 5072   4.456   3.328   0.647  0.5436  0.3428  0.3475
 1586SOL     OW 5073   5.171   0.974   0.755 -0.0756 -0.4204 -0.0845
 1586SOL    HW1 5074   5.084   1.008   0.774  0.2539  0.3501  0.0678
 1586SOL    HW2 5075   5.194   1.013   0.670  0.6458  0.4147  0.4848
 1587SOL     OW 5076   4.190   4.819   3.539  0.4865 -0.4647  0.0212
 1587SOL    HW1 5077   4.244   4.785   3.610 -0.2130  0.8853  1.2240
 1587SOL    HW2 5078   4.191   4.914   3.550  0.0421 -0.2484 -1.5429
 1588SOL     OW 5079   5.072   3.639   4.157  0.2791 -0.0574 -0.7345
 1588SOL    HW1 5080   5.045   3.591   4.079 -0.0217 -2.1850  0.5886
 1588SOL    HW2 5081   4.990   3.663   4.201  0.4524  0.5409 -0.7227
 1589SOL     OW 5082   0.787   0.695   2.565  0.2085  0.5752  0.2367
 1589SOL    HW1 5083   0.792   0.674   2.658 -2.0525  1.5004  0.6363
 1589SOL    HW2 5084   0.700   0.664   2.539 -0.2715  2.7056 -0.9022
 1590SOL     OW 5085   2.317   4.145   0.504  0.4505  0.1648 -0.4527
 1590SOL    HW1 5086   2.305   4.124   0.411 -0.3710 -0.1158 -0.2911
 1590SOL    HW2 5087   2.285   4.234   0.513  2.2208  0.8653 -0.7786
 1591SOL     OW 5088   5.395   3.519   5.505  0.0811 -0.2122 -0.5309
 1591SOL    HW1 5089   5.423   3.464   5.578  0.8987 -1.5090 -1.7760
 1591SOL    HW2 5090   5.299   3.508   5.502 -0.3072  1.7366  1.7610
 1592SOL     OW 5091   0.333   0.639   1.558 -0.0506 -0.1125  0.3684
 1592SOL    HW1 5092   0.399   0.708   1.553  0.4213 -0.6408 -1.8476
 1592SOL    HW2 5093   0.366   0.579   1.624  0.5353  0.7682  0.8930
 1593SOL     OW 5094   4.350   5.074   4.022 -0.0945  0.3962  0.0365
 1593SOL    HW1 5095   4.354   5.007   4.090  0.9812  2.3331  2.0131
 1593SOL    HW2 5096   4.349   5.156   4.070  0.1320  1.8457 -2.3085
 1594SOL     OW 5097   4.514   1.977   5.019  0.1501 -0.0147 -0.1953
 1594SOL    HW1 5098   4.533   1.965   4.926 -0.7230 -1.3910 -0.2366
 1594SOL    HW2 5099   4.599   1.972   5.062  0.5094  0.1532 -0.8722
 1595SOL     OW 5100   4.428   4.036   4.471 -0.0591 -0.5103 -0.5744
 1595SOL    HW1 5101   4.411   3.958   4.419 -0.0454 -0.1184 -1.1807
 1595SOL    HW2 5102   4.523   4.046   4.470 -0.1612  0.6873 -2.2940
 1596SOL     OW 5103   1.003   3.141   0.044 -0.6472 -0.0928  0.2868
 1596SOL    HW1 5104   1.087   3.173   0.076 -0.3155 -0.7719  0.1158
 1596SOL    HW2 5105   0.941   3.159   0.115 -0.4109  0.6330  0.3125
 1597SOL     OW 5106   4.126   0.267   1.487 -0.2694  0.0411  0.4269
 1597SOL    HW1 5107   4.167   0.331   1.546  1.3947 -0.7210  0.1524
 1597SOL    HW2 5108   4.192   0.252   1.419 -2.2281  1.0707 -1.8186
 1598SOL     OW 5109   3.609   3.758   4.543 -0.2725 -0.2641 -0.2325
 1598SOL    HW1 5110   3.618   3.692   4.475 -0.0988  0.1280 -0.5924
 1598SOL    HW2 5111   3.675   3.824   4.522 -1.5975  0.9082 -0.8821
 1599SOL     OW 5112   2.152   2.904   5.320 -0.0510  0.0547 -0.6429
 1599SOL    HW1 5113   2.154   2.892   5.415 -1.4173 -3.2013 -0.8997
 1599SOL    HW2 5114   2.243   2.922   5.297  0.6790 -1.0578  1.1147
 1600SOL     OW 5115   2.918   1.215   5.087 -0.2074  0.0549 -0.1023
 1600SOL    HW1 5116   2.838   1.163   5.082  0.6032 -1.1675 -0.9321
 1600SOL    HW2 5117   2.965   1.179   5.163 -0.5177  0.9103  0.5138
 1601SOL     OW 5118   0.068   4.745   1.745  0.1571  0.0673 -0.0137
 1601SOL    HW1 5119   0.070   4.839   1.766 -0.3163 -0.5077  2.9928
 1601SOL    HW2 5120  -0.003   4.737   1.681 -1.6226  1.4583  1.6686
 1602SOL     OW 5121   5.383   0.221   2.978 -0.1052 -0.3297  0.2805
 1602SOL    HW1 5122   5.470   0.255   2.956 -1.2099  0.7287 -3.0663
 1602SOL    HW2 5123   5.399   0.160   3.050  3.2815  0.3796  0.3146
 1603SOL     OW 5124   1.839   2.548   1.683  0.2946 -0.1309 -0.2274
 1603SOL    HW1 5125   1.851   2.529   1.589 -1.7338 -0.8257 -0.3862
 1603SOL    HW2 5126   1.791   2.473   1.717  1.0638  0.0847  1.4129
 1604SOL     OW 5127   2.962   4.689   4.419  0.3633 -0.2353 -0.0598
 1604SOL    HW1 5128   2.929   4.661   4.334  0.3599 -0.9992  0.1884
 1604SOL    HW2 5129   2.919   4.632   4.483  1.0711 -0.2973  0.3798
 1605SOL     OW 5130   2.460   3.174   4.369  0.1642  0.2711  0.4063
 1605SOL    HW1 5131   2.398   3.109   4.402 -0.4746  1.0306  0.7411
 1605SOL    HW2 5132   2.419   3.207   4.289  0.2213  0.6399  0.5278
 1606SOL     OW 5133   5.194   4.817   4.413 -0.0145  0.1298 -0.0158
 1606SOL    HW1 5134   5.243   4.741   4.444  0.0585  0.5992  1.0662
 1606SOL    HW2 5135   5.260   4.884   4.396 -0.1287  0.1462 -0.4244
 1607SOL     OW 5136   4.260   3.548   0.817  0.3671  0.5035 -0.0269
 1607SOL    HW1 5137   4.200   3.479   0.845 -0.2355 -0.2022 -2.7034
 1607SOL    HW2 5138   4.333   3.501   0.778 -0.5403  1.2254 -2.8810
 1608SOL     OW 5139   3.106   3.016   2.574 -0.1548 -0.3664 -0.2769
 1608SOL    HW1 5140   3.089   3.052   2.488 -1.7180 -1.6755 -0.5632
 1608SOL    HW2 5141   3.021   2.984   2.605  0.4228 -0.2123  1.6216
 1609SOL     OW 5142   2.633   0.478   5.523 -0.2577  0.2591 -0.3572
 1609SOL    HW1 5143   2.687   0.481   5.601 -1.7382  0.2339  0.7127
 1609SOL    HW2 5144   2.647   0.562   5.480  0.1804  0.4787  0.2081
 1610SOL     OW 5145   1.693   3.167   2.515  0.0815 -0.3173  0.1359
 1610SOL    HW1 5146   1.706   3.075   2.539  3.0264 -0.1466 -0.4033
 1610SOL    HW2 5147   1.677   3.212   2.598  3.3067 -0.7141  1.1123
 1611SOL     OW 5148   0.523   1.434   2.914 -0.3733 -0.1437 -1.2849
 1611SOL    HW1 5149   0.608   1.394   2.895  1.1187  2.4637 -0.5878
 1611SOL    HW2 5150   0.531   1.467   3.004 -1.9065  0.6816 -1.4119
 1612SOL     OW 5151   1.268   3.914   0.838  0.0160 -0.2138  0.4067
 1612SOL    HW1 5152   1.328   3.872   0.899  0.8058  1.3131  0.7354
 1612SOL    HW2 5153   1.211   3.844   0.808 -0.1699 -1.1003  2.6301
 1613SOL     OW 5154   0.920   2.679   2.053  0.1701  0.2095 -0.7468
 1613SOL    HW1 5155   0.974   2.602   2.032 -2.4568 -2.3601  1.2441
 1613SOL    HW2 5156   0.970   2.725   2.120  2.1528  0.8427 -2.5179
 1614SOL     OW 5157   3.536   2.124   5.029 -0.1926 -0.8290  0.3769
 1614SOL    HW1 5158   3.562   2.077   4.950  1.2312  0.2514  0.1675
 1614SOL    HW2 5159   3.462   2.179   5.001 -0.8829 -1.8028  0.2594
 1615SOL     OW 5160   4.603   2.668   2.556 -0.2439 -0.2081  0.3380
 1615SOL    HW1 5161   4.558   2.747   2.526 -0.7224  0.7932  3.3962
 1615SOL    HW2 5162   4.534   2.609   2.583  0.1553 -1.3373 -0.9861
 1616SOL     OW 5163   5.021   0.755   4.892  0.6433  0.2896 -0.2250
 1616SOL    HW1 5164   5.047   0.811   4.965 -0.6428  0.2177  0.3091
 1616SOL    HW2 5165   5.074   0.676   4.902 -0.2731 -0.1533  1.2439
 1617SOL     OW 5166   1.719   5.527   3.139  0.4895  0.0054 -0.0347
 1617SOL    HW1 5167   1.730   5.433   3.150  0.9112  0.0527 -0.0282
 1617SOL    HW2 5168   1.709   5.540   3.045  3.5212  0.2352 -0.4335
 1618SOL     OW 5169   2.496   5.504   0.769  0.5717 -0.5422  0.4848
 1618SOL    HW1 5170   2.541   5.567   0.713  1.0600 -1.0725  0.2760
 1618SOL    HW2 5171   2.405   5.508   0.742  0.4801  0.5117  0.8786
 1619SOL     OW 5172   4.858   5.294   2.794 -0.1916 -0.3438  0.5263
 1619SOL    HW1 5173   4.862   5.319   2.702  0.6732 -0.0620  0.6334
 1619SOL    HW2 5174   4.941   5.325   2.831  0.0121 -1.5424  1.1232
 1620SOL     OW 5175   2.219   1.522   0.373  0.3047 -0.9165  0.2666
 1620SOL    HW1 5176   2.189   1.569   0.295 -0.2785 -0.4699  0.7512
 1620SOL    HW2 5177   2.214   1.587   0.443  0.6027 -1.3821  0.7223
 1621SOL     OW 5178   1.706   5.558   0.495  0.4565  0.0241 -0.3005
 1621SOL    HW1 5179   1.703   5.465   0.514  2.6882  0.2473  1.6261
 1621SOL    HW2 5180   1.743   5.564   0.407 -3.3717 -0.8825 -2.1762
 1622SOL     OW 5181   3.854   0.768   4.664  0.2809  0.3311 -0.2277
 1622SOL    HW1 5182   3.923   0.720   4.618  0.3134  0.8137 -0.6913
 1622SOL    HW2 5183   3.786   0.782   4.598 -0.8257 -1.1960  0.5238
 1623SOL     OW 5184   5.037   2.385   5.131 -0.4635  0.4306 -0.0662
 1623SOL    HW1 5185   4.947   2.408   5.154 -0.0927 -0.9712  3.5007
 1623SOL    HW2 5186   5.088   2.464   5.151 -0.5164  0.0821  1.6036
 1624SOL     OW 5187   0.321   4.132   3.016 -0.8472 -0.4388 -0.0097
 1624SOL    HW1 5188   0.325   4.209   3.073  1.8211 -1.1559  0.9122
 1624SOL    HW2 5189   0.279   4.163   2.936  2.5053  2.7402 -0.7616
 1625SOL     OW 5190   4.865   0.711   1.944  0.2775  0.5702 -0.7249
 1625SOL    HW1 5191   4.821   0.777   1.997 -0.0844 -0.7144  0.6476
 1625SOL    HW2 5192   4.957   0.738   1.943  0.6903 -0.3820  2.2911
 1626SOL     OW 5193   1.241   3.033   1.987 -0.1869  0.1692  0.3825
 1626SOL    HW1 5194   1.283   3.112   1.954 -0.0279  0.3525  0.9953
 1626SOL    HW2 5195   1.246   2.970   1.915  0.3679  0.4744  0.1530
 1627SOL     OW 5196   1.591   4.041   2.780 -0.4276  0.4435  0.1627
 1627SOL    HW1 5197   1.497   4.057   2.784 -0.5241 -0.2676  1.3662
 1627SOL    HW2 5198   1.605   3.966   2.838  1.0045  1.1189  0.7401
 1628SOL     OW 5199   5.212   5.303   3.286  0.0382 -0.8001  0.5561
 1628SOL    HW1 5200   5.221   5.303   3.382  1.9566  1.1284  0.4598
 1628SOL    HW2 5201   5.141   5.364   3.269  0.0964 -0.6846  0.7252
 1629SOL     OW 5202   4.690   0.560   2.481 -0.1372  0.0437  0.3007
 1629SOL    HW1 5203   4.615   0.516   2.443  0.1698 -1.0355  0.9149
 1629SOL    HW2 5204   4.734   0.601   2.407  0.3126 -1.8087 -0.5084
 1630SOL     OW 5205   1.020   3.926   3.491  0.1563 -0.0218 -0.0582
 1630SOL    HW1 5206   1.039   3.993   3.425 -0.7332 -0.0500 -0.3558
 1630SOL    HW2 5207   0.974   3.973   3.560 -1.0623 -0.4280 -0.5687
 1631SOL     OW 5208   4.665   1.797   5.236  0.3314 -0.9818 -0.3280
 1631SOL    HW1 5209   4.746   1.747   5.227  0.3047 -0.9539 -0.7345
 1631SOL    HW2 5210   4.691   1.877   5.282  0.4298 -1.2246  0.0428
 1632SOL     OW 5211   4.341   2.128   0.209  0.4633 -0.2532 -0.6138
 1632SOL    HW1 5212   4.333   2.096   0.299  0.1856  1.3250 -0.0447
 1632SOL    HW2 5213   4.425   2.094   0.179  0.0899 -1.6638 -0.1400
 1633SOL     OW 5214   4.093   2.482   4.059  0.0045  0.2636  0.4983
 1633SOL    HW1 5215   4.057   2.398   4.029 -0.5398  0.7169 -0.1479
 1633SOL    HW2 5216   4.027   2.516   4.118 -0.2988  0.7509 -0.1097
 1634SOL     OW 5217   3.752   2.659   3.225  0.0006 -0.0591  0.7252
 1634SOL    HW1 5218   3.711   2.718   3.288  2.1680 -0.0057  2.2068
 1634SOL    HW2 5219   3.829   2.706   3.194  0.4565 -1.1663  0.1039
 1635SOL     OW 5220   0.664   2.753   5.329  0.5897 -0.2267  0.1835
 1635SOL    HW1 5221   0.674   2.838   5.373  2.6823 -0.5952  0.5228
 1635SOL    HW2 5222   0.592   2.710   5.375  0.6308  0.6948  1.1392
 1636SOL     OW 5223   1.570   2.362   3.737  0.5720 -0.6293 -0.2999
 1636SOL    HW1 5224   1.638   2.315   3.785  0.5563 -0.6940 -0.3410
 1636SOL    HW2 5225   1.583   2.454   3.760  1.6239 -0.4611 -1.4770
 1637SOL     OW 5226   5.110   2.185   0.120  0.9103  0.2172 -0.3569
 1637SOL    HW1 5227   5.140   2.276   0.114 -2.2370  1.3961  0.1055
 1637SOL    HW2 5228   5.093   2.172   0.213 -0.1276 -0.3293 -0.6125
 1638SOL     OW 5229   5.040   0.230   1.724 -0.4429  0.6926 -0.6411
 1638SOL    HW1 5230   5.089   0.169   1.779 -1.0558 -0.1921 -1.0509
 1638SOL    HW2 5231   5.107   0.283   1.680  0.1598 -0.6919 -1.4311
 1639SOL     OW 5232   1.224   4.977   5.041 -0.1471 -0.4828  0.4571
 1639SOL    HW1 5233   1.285   4.998   4.971 -2.1549 -2.2246 -2.0219
 1639SOL    HW2 5234   1.279   4.944   5.112  1.9350  0.5521 -0.5994
 1640SOL     OW 5235   3.014   2.267   5.251 -0.0684  0.4822 -0.0014
 1640SOL    HW1 5236   3.085   2.299   5.196 -0.5302  0.6099 -0.5364
 1640SOL    HW2 5237   3.029   2.172   5.256 -0.4929  0.3444 -1.0568
 1641SOL     OW 5238   2.964   0.884   0.913  0.0292  0.3971  0.6181
 1641SOL    HW1 5239   2.991   0.807   0.963  0.4913  0.5162  0.5535
 1641SOL    HW2 5240   2.869   0.875   0.905 -0.0745  0.4685  1.6756
 1642SOL     OW 5241   0.377   3.007   1.748 -0.3572  0.2313  0.3838
 1642SOL    HW1 5242   0.469   2.999   1.776 -0.0932  0.5641 -0.3472
 1642SOL    HW2 5243   0.334   3.052   1.821 -0.0438 -0.3515  0.9343
 1643SOL     OW 5244   0.499   5.020   0.496 -0.3221  0.4402 -0.3359
 1643SOL    HW1 5245   0.546   5.102   0.480  0.1913  0.8144  2.5525
 1643SOL    HW2 5246   0.566   4.952   0.490 -0.1083  0.5894  0.2957
 1644SOL     OW 5247   3.200   2.833   0.508 -0.1660  0.2003 -0.3770
 1644SOL    HW1 5248   3.127   2.784   0.546  0.6074 -1.1308 -0.5242
 1644SOL    HW2 5249   3.166   2.922   0.497 -1.8182 -0.4202 -0.6301
 1645SOL     OW 5250   4.640   0.341   2.943  0.0300 -0.0460 -0.0425
 1645SOL    HW1 5251   4.582   0.379   2.876 -1.8119 -0.1806  1.3822
 1645SOL    HW2 5252   4.656   0.413   3.003  0.1285 -0.3961  0.3494
 1646SOL     OW 5253   3.625   2.276   2.315  0.0449 -0.5013  0.2340
 1646SOL    HW1 5254   3.591   2.232   2.237 -0.0690 -0.0023 -0.0025
 1646SOL    HW2 5255   3.620   2.369   2.294 -0.3696 -0.3384  0.9898
 1647SOL     OW 5256   3.644   2.386   4.459  0.0673  0.2714  0.3938
 1647SOL    HW1 5257   3.621   2.324   4.390 -2.6671  0.9648  0.5353
 1647SOL    HW2 5258   3.584   2.364   4.531  2.3862 -0.0102  2.3628
 1648SOL     OW 5259   3.784   4.303   4.516  0.1491 -0.4792  0.0193
 1648SOL    HW1 5260   3.750   4.214   4.520  1.1389 -0.8495  0.3131
 1648SOL    HW2 5261   3.823   4.311   4.429 -2.2530  0.5591 -1.0698
 1649SOL     OW 5262   4.890   5.001   5.045  0.4162 -0.2339  0.0696
 1649SOL    HW1 5263   4.895   4.920   5.095  2.8795 -0.4218 -0.3484
 1649SOL    HW2 5264   4.843   4.978   4.965 -1.2091 -0.5700  1.0883
 1650SOL     OW 5265   3.646   0.456   2.150  0.2697  0.2356  0.6166
 1650SOL    HW1 5266   3.685   0.370   2.133 -0.1331  0.1679  0.0249
 1650SOL    HW2 5267   3.718   0.518   2.137  1.0655 -0.1210  2.8855
 1651SOL     OW 5268   5.394   5.542   3.469  0.2282  0.3408  0.4334
 1651SOL    HW1 5269   5.380   5.447   3.473  0.1156  0.3436  0.1914
 1651SOL    HW2 5270   5.357   5.567   3.384  0.3650  0.5839  0.4457
 1652SOL     OW 5271   1.464   3.549   2.222  0.1883 -0.1591  0.0089
 1652SOL    HW1 5272   1.532   3.615   2.228 -0.0813  0.1570 -0.3655
 1652SOL    HW2 5273   1.393   3.591   2.173 -0.1000 -0.6270  0.0116
 1653SOL     OW 5274   3.160   1.661   3.631 -0.0288 -0.0873  0.3203
 1653SOL    HW1 5275   3.064   1.667   3.635 -0.2736 -0.8281 -2.5512
 1653SOL    HW2 5276   3.185   1.724   3.564  1.1614 -1.9671 -1.0891
 1654SOL     OW 5277   3.605   3.346   5.417 -0.2585  0.4762  0.0193
 1654SOL    HW1 5278   3.688   3.377   5.455 -0.2177 -1.0775  1.3179
 1654SOL    HW2 5279   3.629   3.315   5.329  0.2172  1.4820 -0.2201
 1655SOL     OW 5280   1.469   5.443   2.979  0.7371  0.5725 -0.4240
 1655SOL    HW1 5281   1.450   5.489   3.060 -0.8291 -0.3482 -0.2148
 1655SOL    HW2 5282   1.455   5.350   3.000  1.7287  0.1929 -1.3692
 1656SOL     OW 5283   4.776   1.063   3.018  0.1736  0.6795  0.3452
 1656SOL    HW1 5284   4.694   1.110   3.031 -0.0553  0.6643 -0.9012
 1656SOL    HW2 5285   4.753   0.992   2.958  0.7176 -0.4678  1.4494
 1657SOL     OW 5286   0.643   4.064   3.952  0.0637 -0.1749 -0.3696
 1657SOL    HW1 5287   0.563   4.068   4.004  0.5234  0.7534  0.2844
 1657SOL    HW2 5288   0.620   4.105   3.868 -0.0218  0.4977 -0.0196
 1658SOL     OW 5289   2.150   4.784   4.471 -0.3151  0.1863 -0.6255
 1658SOL    HW1 5290   2.158   4.690   4.486 -0.3720  0.4212  1.0007
 1658SOL    HW2 5291   2.239   4.818   4.481 -0.6495  0.6051  1.1730
 1659SOL     OW 5292   1.946   0.432   4.668 -0.1184  0.0348 -0.0580
 1659SOL    HW1 5293   1.888   0.445   4.743  1.6772  0.3973  1.3378
 1659SOL    HW2 5294   2.010   0.502   4.675 -0.7983  1.0911 -2.9145
 1660SOL     OW 5295   2.330   1.651   1.935 -0.3257  0.2981 -0.2174
 1660SOL    HW1 5296   2.392   1.588   1.899 -0.8020  0.1298 -0.7565
 1660SOL    HW2 5297   2.361   1.668   2.024 -0.2417 -0.7495 -0.0452
 1661SOL     OW 5298   4.749   0.783   3.429  0.1645 -0.4041  0.1666
 1661SOL    HW1 5299   4.770   0.717   3.363  1.8841 -0.9569  1.1771
 1661SOL    HW2 5300   4.725   0.732   3.507  0.3352  0.1750  0.6031
 1662SOL     OW 5301   1.182   5.293   4.194 -0.0863  0.0412  0.3974
 1662SOL    HW1 5302   1.097   5.332   4.174  0.5720  2.1284  1.3490
 1662SOL    HW2 5303   1.167   5.241   4.273 -1.2197 -2.7388 -1.4997
 1663SOL     OW 5304   3.433   0.959   3.076 -0.3076 -0.5469  0.4270
 1663SOL    HW1 5305   3.424   0.873   3.034 -1.1010 -0.2020 -0.1496
 1663SOL    HW2 5306   3.402   0.945   3.166  1.9046 -1.4180  1.1212
 1664SOL     OW 5307   2.400   3.421   2.889 -0.1816  0.6302  0.3936
 1664SOL    HW1 5308   2.344   3.433   2.965  0.0559  0.5190  0.5878
 1664SOL    HW2 5309   2.403   3.327   2.875 -0.0061  0.6321  0.4136
 1665SOL     OW 5310   5.186   3.762   5.039 -0.1850  0.3481  0.2003
 1665SOL    HW1 5311   5.187   3.667   5.030  0.4515  0.3623  0.0877
 1665SOL    HW2 5312   5.262   3.782   5.094 -0.0174  0.8267 -0.1958
 1666SOL     OW 5313   0.069   5.439   5.112  0.1550 -0.0591  0.4318
 1666SOL    HW1 5314   0.030   5.445   5.025  0.0282 -0.3915  0.4626
 1666SOL    HW2 5315   0.007   5.482   5.170  0.8608  1.3494  0.1769
 1667SOL     OW 5316   2.773   3.224   2.102  0.0670 -0.0233  0.0992
 1667SOL    HW1 5317   2.814   3.143   2.071 -0.6635  0.4754 -2.3946
 1667SOL    HW2 5318   2.702   3.241   2.040  0.3584  2.6505  0.3718
 1668SOL     OW 5319   3.688   3.139   4.972 -0.2378  0.4370  0.3838
 1668SOL    HW1 5320   3.672   3.084   5.049 -0.9095  0.9723  0.6423
 1668SOL    HW2 5321   3.764   3.100   4.930 -0.8205 -0.8163  0.4458
 1669SOL     OW 5322   5.533   5.032   4.576 -0.0803 -0.0190 -0.5846
 1669SOL    HW1 5323   5.549   4.945   4.539 -1.2172 -0.8098  0.7292
 1669SOL    HW2 5324   5.438   5.037   4.586 -0.0096  1.2961 -0.4297
 1670SOL     OW 5325   1.555   1.126   5.380 -0.1233 -0.4258  0.9551
 1670SOL    HW1 5326   1.523   1.037   5.392  0.0003 -0.4950  0.7765
 1670SOL    HW2 5327   1.645   1.125   5.413 -0.3548 -0.1901  1.6100
 1671SOL     OW 5328   4.066   5.237   5.421  0.4585  0.6753  0.2818
 1671SOL    HW1 5329   4.028   5.206   5.504  2.4962 -1.6908  0.4698
 1671SOL    HW2 5330   4.110   5.319   5.444 -2.2064  2.1363  0.5889
 1672SOL     OW 5331   2.945   5.235   2.414  0.2056  0.0132  0.0113
 1672SOL    HW1 5332   3.013   5.248   2.479  0.7529  1.9669 -0.8768
 1672SOL    HW2 5333   2.969   5.153   2.370  0.5839 -0.6000  1.3170
 1673SOL     OW 5334   5.066   5.338   4.843 -0.2761 -0.2976  0.0023
 1673SOL    HW1 5335   5.098   5.371   4.927 -2.7864  0.4112  0.7456
 1673SOL    HW2 5336   5.132   5.273   4.816  2.0651  1.5140  1.0677
 1674SOL     OW 5337   2.421   4.419   4.425  0.0855 -0.4108 -0.0377
 1674SOL    HW1 5338   2.417   4.369   4.344 -0.6408 -0.3466 -0.0467
 1674SOL    HW2 5339   2.427   4.353   4.494  1.1509 -0.4545 -0.1664
 1675SOL     OW 5340   4.760   3.069   2.721 -0.2108  0.0174 -0.3480
 1675SOL    HW1 5341   4.709   3.041   2.797  2.0799 -1.0722  0.8992
 1675SOL    HW2 5342   4.765   3.164   2.728  0.9324 -0.1454  1.5883
 1676SOL     OW 5343   2.438   2.082   4.267  0.2262 -0.7444  0.0140
 1676SOL    HW1 5344   2.511   2.115   4.318  0.2646  0.1853 -0.6153
 1676SOL    HW2 5345   2.437   2.135   4.188 -2.5276  0.8961  0.9997
 1677SOL     OW 5346   4.341   0.640   1.411 -0.1846  0.0915  0.2852
 1677SOL    HW1 5347   4.304   0.657   1.324 -0.6653 -1.6604  0.1129
 1677SOL    HW2 5348   4.320   0.718   1.462 -2.5044 -0.0607 -0.3460
 1678SOL     OW 5349   5.464   3.537   5.244  0.0836 -0.2796  0.0917
 1678SOL    HW1 5350   5.483   3.443   5.233 -0.6003 -0.5223  0.9094
 1678SOL    HW2 5351   5.437   3.546   5.335  1.1657  0.9042  0.3164
 1679SOL     OW 5352   1.471   5.342   1.431 -0.5135  0.7775 -0.1267
 1679SOL    HW1 5353   1.450   5.383   1.515  0.1708 -0.1402  0.5099
 1679SOL    HW2 5354   1.521   5.409   1.384 -0.5156  1.1348  0.3697
 1680SOL     OW 5355   4.337   2.360   3.863 -0.3754  0.1778  0.2291
 1680SOL    HW1 5356   4.287   2.421   3.917  1.4501  2.5749 -0.6401
 1680SOL    HW2 5357   4.310   2.378   3.773 -0.3305 -0.8387 -0.0097
 1681SOL     OW 5358   2.882   0.042   4.751 -0.1218  0.1819  0.1157
 1681SOL    HW1 5359   2.869  -0.045   4.712 -0.9081  0.6075 -0.6246
 1681SOL    HW2 5360   2.827   0.041   4.829 -0.8707  0.3137 -0.3941
 1682SOL     OW 5361   0.200   3.589   1.447 -0.1104  0.2358 -0.3752
 1682SOL    HW1 5362   0.215   3.544   1.364  1.4770  1.2115 -0.6609
 1682SOL    HW2 5363   0.194   3.682   1.423  0.3843  0.5338  0.6023
 1683SOL     OW 5364   0.817   0.042   3.534 -0.0315  0.3521 -0.6624
 1683SOL    HW1 5365   0.819  -0.007   3.452  0.8592  0.7393 -0.8873
 1683SOL    HW2 5366   0.755   0.113   3.519 -0.3777  0.0254 -0.7680
 1684SOL     OW 5367   4.938   3.291   3.227 -0.1213  0.5333  0.6361
 1684SOL    HW1 5368   4.927   3.311   3.320 -1.4085  0.1362  0.5963
 1684SOL    HW2 5369   4.977   3.204   3.225  1.5737  1.2619  0.7935
 1685SOL     OW 5370   4.148   5.335   3.885  0.4770 -0.0459  0.3395
 1685SOL    HW1 5371   4.122   5.243   3.890  1.9670 -0.5545 -0.7993
 1685SOL    HW2 5372   4.244   5.334   3.882  0.5095  1.3672 -2.1451
 1686SOL     OW 5373   5.259   1.646   1.464 -0.0540  0.5541 -0.3413
 1686SOL    HW1 5374   5.212   1.690   1.394 -0.6736  2.4463  1.1824
 1686SOL    HW2 5375   5.227   1.556   1.462 -1.1524  0.9506 -1.5252
 1687SOL     OW 5376   2.070   1.222   5.262 -0.1636 -0.2155  0.0903
 1687SOL    HW1 5377   2.010   1.159   5.303 -1.0329  0.0602 -0.7359
 1687SOL    HW2 5378   2.105   1.175   5.186 -0.1300 -0.0155 -0.0171
 1688SOL     OW 5379   0.960   2.732   2.949  0.0345  0.7375  0.1174
 1688SOL    HW1 5380   0.933   2.649   2.988  0.6009  0.8974  0.8705
 1688SOL    HW2 5381   0.934   2.799   3.013 -0.3822  1.1474 -0.4617
 1689SOL     OW 5382   3.501   0.493   0.989  0.1421 -0.3598 -0.1857
 1689SOL    HW1 5383   3.546   0.465   0.910 -0.3139  1.4124 -1.1364
 1689SOL    HW2 5384   3.431   0.550   0.958  0.8391  1.5776  1.5382
 1690SOL     OW 5385   2.730   4.787   1.056 -0.3451 -0.1069  0.4984
 1690SOL    HW1 5386   2.706   4.719   1.119 -0.6247 -1.2584 -0.7836
 1690SOL    HW2 5387   2.803   4.833   1.096 -0.3538 -0.9780  1.5425
 1691SOL     OW 5388   1.414   3.311   0.390 -0.5309 -0.6355 -0.0139
 1691SOL    HW1 5389   1.409   3.369   0.313 -0.4318  0.9567  1.1313
 1691SOL    HW2 5390   1.341   3.251   0.379 -0.7214 -0.2269 -1.1822
 1692SOL     OW 5391   0.866   3.178   0.263 -0.3063 -0.1615 -0.1477
 1692SOL    HW1 5392   0.869   3.085   0.285 -0.2805 -0.5609 -1.7716
 1692SOL    HW2 5393   0.840   3.221   0.345  2.2079 -1.3116  1.3524
 1693SOL     OW 5394   1.151   2.679   4.834 -1.1069 -0.2090  0.6034
 1693SOL    HW1 5395   1.106   2.654   4.915 -1.5658  0.1345  0.4577
 1693SOL    HW2 5396   1.192   2.763   4.855 -0.7405 -0.4007  0.6579
 1694SOL     OW 5397   5.275   3.745   3.159 -0.5696 -0.1103 -0.3477
 1694SOL    HW1 5398   5.342   3.720   3.222 -0.4797  0.0908 -0.3647
 1694SOL    HW2 5399   5.216   3.669   3.155  1.5569 -1.8068 -2.9327
 1695SOL     OW 5400   4.594   4.427   5.551 -0.2661 -0.2994 -0.5702
 1695SOL    HW1 5401   4.624   4.339   5.573 -0.9693 -0.4866 -0.3113
 1695SOL    HW2 5402   4.664   4.485   5.581  0.2052 -0.7675 -0.7491
 1696SOL     OW 5403   0.289   1.805   3.295 -0.0959 -0.2062 -0.0696
 1696SOL    HW1 5404   0.261   1.724   3.337 -0.3394 -0.8202 -1.3864
 1696SOL    HW2 5405   0.383   1.812   3.315 -0.0435 -0.8806 -0.0738
 1697SOL     OW 5406   4.367   4.298   2.810  0.1844  0.0751 -0.0751
 1697SOL    HW1 5407   4.339   4.211   2.839  0.5564 -1.0803 -2.9313
 1697SOL    HW2 5408   4.290   4.353   2.820 -0.2836 -0.7305  1.0102
 1698SOL     OW 5409   1.870   1.801   3.183 -0.6131 -0.2290  0.0620
 1698SOL    HW1 5410   1.886   1.867   3.250 -0.0221 -0.6231  0.3161
 1698SOL    HW2 5411   1.804   1.743   3.222 -1.1739  0.2373 -0.1840
 1699SOL     OW 5412   4.195   0.283   2.606  0.2700  0.7930 -0.2867
 1699SOL    HW1 5413   4.279   0.239   2.598  0.2430  0.3509  1.4562
 1699SOL    HW2 5414   4.148   0.235   2.674 -0.8854  1.8110 -0.3111
 1700SOL     OW 5415   4.324   2.329   4.592  0.0351  0.6514 -0.0674
 1700SOL    HW1 5416   4.324   2.233   4.597  0.7074  0.5184 -1.8074
 1700SOL    HW2 5417   4.271   2.349   4.515 -0.4587  1.7124  0.5243
 1701SOL     OW 5418   0.756   5.432   1.253 -0.2846 -0.3873  0.2211
 1701SOL    HW1 5419   0.713   5.485   1.186 -1.4790 -0.4633  0.8990
 1701SOL    HW2 5420   0.712   5.456   1.335  0.2804 -1.2146  0.7883
 1702SOL     OW 5421   1.798   4.794   1.171 -0.0351 -1.2927 -0.7625
 1702SOL    HW1 5422   1.822   4.770   1.081 -0.3776  0.5547 -1.3973
 1702SOL    HW2 5423   1.860   4.864   1.194 -0.2054 -1.4823  0.2959
 1703SOL     OW 5424   1.755   4.159   3.044  0.0626 -0.0493  0.0662
 1703SOL    HW1 5425   1.743   4.171   2.950  0.7777 -0.5901 -0.0992
 1703SOL    HW2 5426   1.842   4.193   3.061  0.2332 -0.6466  0.4038
 1704SOL     OW 5427   4.791   0.298   3.413  0.0827 -0.8905  0.0382
 1704SOL    HW1 5428   4.856   0.368   3.421  0.7012 -1.5984  1.6626
 1704SOL    HW2 5429   4.708   0.343   3.397  0.9011  0.0346 -1.9260
 1705SOL     OW 5430   2.193   3.849   4.728 -0.0247  0.0625 -0.1636
 1705SOL    HW1 5431   2.205   3.756   4.743 -1.2543 -0.5074 -2.2575
 1705SOL    HW2 5432   2.133   3.878   4.796 -1.1951 -1.1476 -0.6501
 1706SOL     OW 5433   2.819   1.142   2.850  0.1685 -0.7436  0.3071
 1706SOL    HW1 5434   2.836   1.094   2.768  0.8008 -0.9478  0.5547
 1706SOL    HW2 5435   2.901   1.137   2.898  1.4446  3.3427 -1.0100
 1707SOL     OW 5436   0.708   1.502   2.438 -0.2198 -0.0272 -0.2985
 1707SOL    HW1 5437   0.741   1.512   2.349 -0.7983  1.0756 -0.3978
 1707SOL    HW2 5438   0.740   1.416   2.465 -0.7646 -0.7653 -1.8784
 1708SOL     OW 5439   2.218   0.897   1.038  0.0126 -0.0767 -0.8429
 1708SOL    HW1 5440   2.127   0.876   1.062  1.0075 -2.1769  1.5630
 1708SOL    HW2 5441   2.234   0.983   1.076 -0.9079  0.2324 -1.1373
 1709SOL     OW 5442   3.252   3.468   0.343 -0.3684  0.1516  0.9613
 1709SOL    HW1 5443   3.217   3.388   0.383 -0.1802 -0.2650  0.3137
 1709SOL    HW2 5444   3.271   3.526   0.417 -0.1185 -0.5704  1.4733
 1710SOL     OW 5445   4.560   3.383   3.560  0.4441  0.1636 -0.5337
 1710SOL    HW1 5446   4.492   3.371   3.494  0.5443 -1.3409 -0.3963
 1710SOL    HW2 5447   4.539   3.319   3.628  2.5400 -1.0590 -0.9562
 1711SOL     OW 5448   1.832   0.572   5.295  0.0444 -0.7650  0.1784
 1711SOL    HW1 5449   1.838   0.663   5.266  0.9040 -0.6748  0.5914
 1711SOL    HW2 5450   1.877   0.572   5.380  0.8687 -1.7559 -0.2443
 1712SOL     OW 5451   2.631   1.899   1.911 -0.5522 -0.1584 -0.4944
 1712SOL    HW1 5452   2.676   1.882   1.994  0.9777  1.8596 -0.8367
 1712SOL    HW2 5453   2.554   1.950   1.935  0.0006  0.6021 -0.2966
 1713SOL     OW 5454   1.139   2.208   2.417 -0.3175 -0.1731 -0.1715
 1713SOL    HW1 5455   1.058   2.257   2.403 -0.1613  1.1020  2.6912
 1713SOL    HW2 5456   1.151   2.209   2.512  2.3343 -1.5621 -0.4050
 1714SOL     OW 5457   4.137   3.092   2.198 -0.0970  0.5255 -0.4454
 1714SOL    HW1 5458   4.104   3.182   2.206 -0.2238  0.4483 -0.0909
 1714SOL    HW2 5459   4.232   3.100   2.206 -0.1478  0.5668  0.1331
 1715SOL     OW 5460   1.573   3.579   4.743  0.6684 -0.1076  0.2586
 1715SOL    HW1 5461   1.612   3.661   4.774  0.4179 -0.1153  0.6079
 1715SOL    HW2 5462   1.525   3.603   4.664  0.3771  0.1366  0.5058
 1716SOL     OW 5463   5.171   2.151   2.736 -0.4570 -0.8317 -0.3668
 1716SOL    HW1 5464   5.224   2.224   2.705  0.8218 -0.5705  2.1983
 1716SOL    HW2 5465   5.100   2.144   2.673  1.4503  0.1659 -2.7913
 1717SOL     OW 5466   4.175   0.829   1.525 -0.4642  0.2916  0.2640
 1717SOL    HW1 5467   4.100   0.868   1.570  1.8084  0.2166  4.6172
 1717SOL    HW2 5468   4.226   0.904   1.494 -1.1935  0.3998 -0.7066
 1718SOL     OW 5469   0.200   4.177   3.962  0.2647  0.1864  0.8246
 1718SOL    HW1 5470   0.250   4.258   3.952  0.4546  0.0514  0.6721
 1718SOL    HW2 5471   0.109   4.205   3.960  0.3151  0.3290  0.1011
 1719SOL     OW 5472   2.668   0.267   4.306  0.5659 -0.3224  0.5856
 1719SOL    HW1 5473   2.663   0.277   4.401 -0.0307  1.0211  0.4293
 1719SOL    HW2 5474   2.611   0.192   4.287 -1.7109  1.1982  1.0450
 1720SOL     OW 5475   5.027   5.053   0.509  0.1660  0.4762  0.1563
 1720SOL    HW1 5476   4.990   5.044   0.597 -1.9556 -0.1599 -0.7390
 1720SOL    HW2 5477   4.972   5.118   0.466 -0.0815 -0.6433 -1.3129
 1721SOL     OW 5478   1.419   2.414   5.000  0.6496 -0.2482  0.1091
 1721SOL    HW1 5479   1.422   2.353   5.073  0.9699 -1.2053 -0.6749
 1721SOL    HW2 5480   1.399   2.499   5.039  0.5202 -0.7994  1.2585
 1722SOL     OW 5481   4.381   5.490   4.928 -0.1643  0.1691  0.2522
 1722SOL    HW1 5482   4.472   5.495   4.901  0.4221  0.4681  2.1170
 1722SOL    HW2 5483   4.355   5.581   4.943 -0.6265  0.0527  0.1952
 1723SOL     OW 5484   1.943   5.528   4.096  0.1620  0.0682  0.0724
 1723SOL    HW1 5485   2.012   5.490   4.150 -1.5279  0.7979  3.0053
 1723SOL    HW2 5486   1.872   5.464   4.100 -1.1370  1.5113  1.4641
 1724SOL     OW 5487   0.761   3.009   3.430  0.0957  0.0813  0.3038
 1724SOL    HW1 5488   0.758   2.955   3.351 -0.6436 -0.3946  0.6478
 1724SOL    HW2 5489   0.751   3.098   3.398 -1.5381 -0.1965 -0.0489
 1725SOL     OW 5490   5.552   4.429   3.175  0.4064  0.1082  0.6357
 1725SOL    HW1 5491   5.500   4.423   3.255  0.2514  1.6654  0.6798
 1725SOL    HW2 5492   5.488   4.441   3.105  0.5027 -1.7927  0.1581
 1726SOL     OW 5493   3.386   1.330   2.416  0.1886 -0.0107  0.4980
 1726SOL    HW1 5494   3.338   1.276   2.479 -0.1905 -1.2525 -0.7938
 1726SOL    HW2 5495   3.449   1.378   2.469 -1.8532  1.0330  2.1665
 1727SOL     OW 5496   4.964   3.380   5.014 -0.1012  0.1696 -0.2644
 1727SOL    HW1 5497   4.899   3.446   4.989 -1.5224 -0.7180  0.9117
 1727SOL    HW2 5498   4.939   3.355   5.103 -0.0782 -2.4776 -0.9206
 1728SOL     OW 5499   4.029   2.742   5.146 -0.9925 -0.2647  0.4266
 1728SOL    HW1 5500   3.968   2.668   5.146  0.8617 -1.9221  2.2038
 1728SOL    HW2 5501   4.006   2.793   5.224 -0.6646 -0.4052  0.6172
 1729SOL     OW 5502   2.127   0.212   3.485  0.3593  0.3530  0.5354
 1729SOL    HW1 5503   2.046   0.200   3.536  0.7681  1.0130  1.3715
 1729SOL    HW2 5504   2.141   0.127   3.442 -1.0813  0.3995 -0.0988
 1730SOL     OW 5505   4.191   0.871   1.957  0.0216  0.5852 -0.6053
 1730SOL    HW1 5506   4.286   0.873   1.945  0.5017 -2.2957  1.5678
 1730SOL    HW2 5507   4.164   0.790   1.914 -0.7305 -0.7666  2.1824
 1731SOL     OW 5508   2.032   5.080   0.769  0.0948 -0.3510  0.5582
 1731SOL    HW1 5509   1.977   5.117   0.700 -0.2773  0.6255  1.3648
 1731SOL    HW2 5510   2.120   5.108   0.747  0.0365 -0.4182  0.2361
 1732SOL     OW 5511   1.955   0.005   1.142  0.0612  0.2509 -0.6564
 1732SOL    HW1 5512   1.981  -0.086   1.155  0.4361  0.3880 -0.4388
 1732SOL    HW2 5513   1.958   0.018   1.047  1.2102  0.3851 -0.6084
 1733SOL     OW 5514   4.951   2.959   3.520  0.3816 -0.2344 -0.2529
 1733SOL    HW1 5515   4.931   2.945   3.612 -0.3578  0.6894 -0.2622
 1733SOL    HW2 5516   4.880   3.014   3.488  0.7557 -0.3513 -1.3200
 1734SOL     OW 5517   3.641   4.381   1.287 -0.2646  0.4264 -0.0180
 1734SOL    HW1 5518   3.645   4.312   1.221  0.5065  1.6359 -1.2978
 1734SOL    HW2 5519   3.563   4.431   1.264 -0.4045  0.4315  0.4532
 1735SOL     OW 5520   0.003   1.561   3.148  0.0150  0.4339 -0.6622
 1735SOL    HW1 5521  -0.038   1.633   3.195 -1.1135  0.2654 -1.3387
 1735SOL    HW2 5522  -0.046   1.483   3.174  1.1012 -0.0913 -0.0816
 1736SOL     OW 5523   2.650   2.513   2.824  0.1721  0.1155 -0.3633
 1736SOL    HW1 5524   2.598   2.588   2.855  1.2700 -0.4504  3.4157
 1736SOL    HW2 5525   2.734   2.551   2.798  0.8346  0.3053  1.8285
 1737SOL     OW 5526   0.544   5.271   5.086  0.2397  0.0081 -0.7517
 1737SOL    HW1 5527   0.578   5.356   5.057  1.6951 -0.5875 -0.8845
 1737SOL    HW2 5528   0.542   5.277   5.182 -0.8355  0.6015 -0.7955
 1738SOL     OW 5529   2.016   2.422   0.626  0.0683 -0.4402  0.1227
 1738SOL    HW1 5530   2.096   2.446   0.579  0.2353  1.0368  1.0964
 1738SOL    HW2 5531   2.037   2.339   0.670  0.4333 -1.0029 -1.0740
 1739SOL     OW 5532   5.449   3.681   0.337 -0.0419  0.3779 -0.0719
 1739SOL    HW1 5533   5.439   3.645   0.425 -0.0690  0.1495 -0.1678
 1739SOL    HW2 5534   5.381   3.748   0.330  0.0755  0.5208  0.1436
 1740SOL     OW 5535   1.245   0.890   2.106 -0.3758  0.6767  0.3537
 1740SOL    HW1 5536   1.334   0.914   2.079 -0.4633 -0.8891 -1.5734
 1740SOL    HW2 5537   1.188   0.945   2.052 -0.5831  0.6127  0.5042
 1741SOL     OW 5538   3.847   5.359   4.055  0.3521  0.0950  0.0617
 1741SOL    HW1 5539   3.759   5.385   4.027  0.2550  0.5042  0.7225
 1741SOL    HW2 5540   3.856   5.268   4.026 -1.0155 -0.5878  1.5933
 1742SOL     OW 5541   5.258   4.920   0.858 -0.0244  0.2074 -0.0379
 1742SOL    HW1 5542   5.278   4.958   0.772 -0.2522 -1.0422 -0.6662
 1742SOL    HW2 5543   5.226   4.831   0.838  0.7072 -0.4006  1.3890
 1743SOL     OW 5544   3.613   2.047   2.839 -0.0646  0.2033  0.4048
 1743SOL    HW1 5545   3.584   2.031   2.749  0.4053  1.4981 -0.0034
 1743SOL    HW2 5546   3.601   2.141   2.852  4.3991  1.0780 -0.0574
 1744SOL     OW 5547   2.643   0.072   0.198  0.1633  0.0860 -0.0610
 1744SOL    HW1 5548   2.612   0.156   0.233 -0.6207  0.0963 -0.7431
 1744SOL    HW2 5549   2.737   0.084   0.188 -0.1358  1.5943 -1.9094
 1745SOL     OW 5550   2.189   4.210   2.560  0.0093  0.0976 -0.2742
 1745SOL    HW1 5551   2.215   4.150   2.490 -1.7640 -1.1054  0.0246
 1745SOL    HW2 5552   2.097   4.228   2.542 -0.0147  1.1340  0.7931
 1746SOL     OW 5553   0.271   5.371   0.101 -0.1525 -0.6727 -0.2922
 1746SOL    HW1 5554   0.253   5.458   0.137  0.5899 -0.8189  0.4854
 1746SOL    HW2 5555   0.216   5.364   0.023 -1.5569 -0.1963  0.6266
 1747SOL     OW 5556   2.799   3.768   2.393  0.2844 -0.5529 -0.3405
 1747SOL    HW1 5557   2.817   3.761   2.486 -4.7010 -0.1962  0.9468
 1747SOL    HW2 5558   2.852   3.842   2.363  1.0069  0.2022  2.5468
 1748SOL     OW 5559   3.783   3.079   3.894  0.8330 -0.3377  0.6946
 1748SOL    HW1 5560   3.783   2.988   3.925 -0.8995 -0.0314  1.7901
 1748SOL    HW2 5561   3.748   3.074   3.805  0.7960 -0.7647  0.7300
 1749SOL     OW 5562   4.214   4.668   5.503 -0.7434 -0.4684 -0.1756
 1749SOL    HW1 5563   4.188   4.689   5.413 -1.9631 -1.9490 -0.2158
 1749SOL    HW2 5564   4.153   4.717   5.558 -0.0676  0.3500 -0.1346
 1750SOL     OW 5565   2.811   1.550   2.858 -0.7683  0.0508 -0.1021
 1750SOL    HW1 5566   2.901   1.568   2.832  0.7098 -0.6092  3.8311
 1750SOL    HW2 5567   2.791   1.465   2.819  1.3500 -1.0205  1.0133
 1751SOL     OW 5568   1.117   3.060   4.733  1.0573  0.0217 -0.0205
 1751SOL    HW1 5569   1.104   3.088   4.823 -0.8405  0.9980 -0.5360
 1751SOL    HW2 5570   1.143   2.968   4.740  0.7908  0.0366  1.5040
 1752SOL     OW 5571   5.485   3.144   2.368  0.0382 -0.3274  0.0892
 1752SOL    HW1 5572   5.406   3.152   2.421 -1.6917  0.4473 -2.4021
 1752SOL    HW2 5573   5.504   3.234   2.340  1.9680 -0.4762  0.7850
 1753SOL     OW 5574   4.325   4.542   2.023  0.0445  0.2923 -0.2472
 1753SOL    HW1 5575   4.279   4.626   2.033  2.0294  1.6298 -1.6580
 1753SOL    HW2 5576   4.265   4.490   1.969 -0.1307  1.7994 -1.6142
 1754SOL     OW 5577   2.606   2.306   3.215 -0.2561 -0.0593 -0.1521
 1754SOL    HW1 5578   2.685   2.261   3.185  0.0726  0.6477 -0.3695
 1754SOL    HW2 5579   2.552   2.314   3.136 -0.7719 -0.9867  0.0977
 1755SOL     OW 5580   1.897   2.804   1.034  0.1184  0.0596  0.6353
 1755SOL    HW1 5581   1.937   2.721   1.011 -0.5811  0.0796 -0.7727
 1755SOL    HW2 5582   1.911   2.860   0.958 -1.0797  0.6030  0.7863
 1756SOL     OW 5583   4.001   2.652   2.050  0.1957  0.2018 -0.0089
 1756SOL    HW1 5584   3.915   2.691   2.063 -0.2940 -0.4755 -1.0931
 1756SOL    HW2 5585   4.044   2.708   1.986  1.2398  1.5064  1.7637
 1757SOL     OW 5586   4.549   3.692   2.242  0.3328  0.0718 -0.0313
 1757SOL    HW1 5587   4.534   3.680   2.336  3.0262 -0.0256  0.4782
 1757SOL    HW2 5588   4.626   3.749   2.237 -0.2861  0.8108 -2.2204
 1758SOL     OW 5589   4.141   0.737   3.496 -0.1524  0.0886 -0.3511
 1758SOL    HW1 5590   4.181   0.687   3.425  0.7424  0.4081 -0.0783
 1758SOL    HW2 5591   4.135   0.674   3.568 -1.0332 -0.2270 -0.6821
 1759SOL     OW 5592   5.174   2.577   0.832 -0.1116 -0.9180  0.1321
 1759SOL    HW1 5593   5.133   2.655   0.795  2.1679  0.0351 -0.5480
 1759SOL    HW2 5594   5.149   2.578   0.924 -1.9396 -0.6808 -0.3135
 1760SOL     OW 5595   2.333   3.480   2.513 -0.9680  0.2770 -0.2607
 1760SOL    HW1 5596   2.386   3.559   2.514 -0.6147  0.0494 -0.6751
 1760SOL    HW2 5597   2.382   3.417   2.565 -1.7985  0.6646  1.0433
 1761SOL     OW 5598   0.986   5.146   1.491  0.1784  0.2541 -0.0199
 1761SOL    HW1 5599   0.899   5.107   1.483  0.5559 -0.9534  1.4062
 1761SOL    HW2 5600   1.038   5.103   1.423  0.0782 -0.2831  0.2376
 1762SOL     OW 5601   1.242   1.781   0.148 -0.4882  0.2740  0.5340
 1762SOL    HW1 5602   1.169   1.795   0.087  2.2368 -1.1048 -3.4965
 1762SOL    HW2 5603   1.302   1.854   0.130  0.2366  0.0577  1.9463
 1763SOL     OW 5604   3.576   3.581   3.134  0.3105  0.3338  0.7907
 1763SOL    HW1 5605   3.544   3.578   3.043  0.6019 -1.6587  0.6976
 1763SOL    HW2 5606   3.518   3.522   3.181  1.7771 -0.7438  1.3188
 1764SOL     OW 5607   1.689   2.540   4.083  0.6217 -0.8318  0.1243
 1764SOL    HW1 5608   1.670   2.556   3.990 -2.3353 -1.9892  0.4281
 1764SOL    HW2 5609   1.739   2.458   4.083  0.9519 -0.6393 -0.4464
 1765SOL     OW 5610   4.750   4.036   0.250  0.2060 -0.0691 -0.5683
 1765SOL    HW1 5611   4.842   4.057   0.239  0.4563 -0.9162 -0.1968
 1765SOL    HW2 5612   4.715   4.108   0.303  0.8695 -0.1992  0.0669
 1766SOL     OW 5613   1.136   0.373   2.658  0.2300 -0.3018  0.5736
 1766SOL    HW1 5614   1.158   0.463   2.634 -0.3114  0.6155  3.1707
 1766SOL    HW2 5615   1.050   0.358   2.618 -0.1412  0.7283  0.9392
 1767SOL     OW 5616   4.164   3.583   2.359 -0.1623  0.0503  0.2618
 1767SOL    HW1 5617   4.234   3.596   2.423 -0.1901 -1.2389  0.5782
 1767SOL    HW2 5618   4.166   3.662   2.306 -0.2500  1.2351  1.9404
 1768SOL     OW 5619   3.765   5.366   1.867 -0.0899 -0.8491 -0.3733
 1768SOL    HW1 5620   3.697   5.403   1.923 -0.4630 -2.5637  0.3590
 1768SOL    HW2 5621   3.730   5.376   1.778 -0.7940 -0.7069 -0.0885
 1769SOL     OW 5622   4.611   5.489   2.653  0.2243  0.0021 -0.0276
 1769SOL    HW1 5623   4.685   5.546   2.675  0.6831 -0.3947 -0.5157
 1769SOL    HW2 5624   4.544   5.512   2.717  0.2372  1.4041 -0.4835
 1770SOL     OW 5625   3.347   1.724   5.487 -0.6559  0.2166 -0.4995
 1770SOL    HW1 5626   3.437   1.695   5.503 -0.7110  0.0602 -0.4703
 1770SOL    HW2 5627   3.350   1.766   5.401 -0.3754  0.9745 -0.1318
 1771SOL     OW 5628   0.984   3.670   0.064  0.2978  0.3135 -0.5380
 1771SOL    HW1 5629   0.935   3.588   0.073  1.5369 -0.3448  0.5591
 1771SOL    HW2 5630   0.984   3.687  -0.030 -1.1216 -0.2103 -0.6652
 1772SOL     OW 5631   3.427   4.358   3.047  0.0880  0.1038  0.1498
 1772SOL    HW1 5632   3.335   4.334   3.033 -0.1682 -0.9968  3.1048
 1772SOL    HW2 5633   3.424   4.451   3.071 -0.3020  0.0096  0.4777
 1773SOL     OW 5634   1.200   3.882   3.979  0.3569  1.0728  0.3954
 1773SOL    HW1 5635   1.129   3.833   3.938  0.7550 -0.0781  1.0323
 1773SOL    HW2 5636   1.271   3.878   3.915  0.0869  1.6461  0.0474
 1774SOL     OW 5637   4.750   3.540   4.925 -0.1062 -0.0589  0.2699
 1774SOL    HW1 5638   4.792   3.608   4.872 -0.7422  0.1230 -0.0084
 1774SOL    HW2 5639   4.664   3.528   4.885  0.6730 -2.3996 -0.8878
 1775SOL     OW 5640   5.046   3.787   2.104 -0.3398  0.0886 -0.5347
 1775SOL    HW1 5641   5.121   3.846   2.099  1.0490 -1.3936  1.5051
 1775SOL    HW2 5642   5.054   3.731   2.026  0.6877 -0.0654 -0.3317
 1776SOL     OW 5643   4.591   0.723   5.164  0.2467  0.2472 -0.2310
 1776SOL    HW1 5644   4.500   0.743   5.185  0.4248 -0.0135  0.8304
 1776SOL    HW2 5645   4.597   0.628   5.167  0.5683  0.2654 -0.2465
 1777SOL     OW 5646   0.853   2.009   2.784 -0.1025 -1.0245 -0.3944
 1777SOL    HW1 5647   0.862   1.916   2.805  0.0768 -0.8773  0.2267
 1777SOL    HW2 5648   0.940   2.035   2.751  0.7200 -0.4860  1.9630
 1778SOL     OW 5649   3.904   4.637   4.575 -0.1008 -0.3651  0.5263
 1778SOL    HW1 5650   3.858   4.656   4.657 -1.3806  0.2652 -0.3056
 1778SOL    HW2 5651   3.882   4.546   4.555 -0.7073 -0.1732  0.3120
 1779SOL     OW 5652   2.850   4.225   5.270  0.1914 -0.3361 -0.3275
 1779SOL    HW1 5653   2.780   4.269   5.319 -0.1519  0.9183 -1.8501
 1779SOL    HW2 5654   2.930   4.251   5.315 -0.0232  1.7314 -1.0343
 1780SOL     OW 5655   0.320   2.748   4.129 -0.6958  0.5696 -0.3374
 1780SOL    HW1 5656   0.356   2.664   4.156 -0.1491  0.8202 -0.2818
 1780SOL    HW2 5657   0.270   2.728   4.049  0.3245  0.3717 -0.9338
 1781SOL     OW 5658   3.058   2.687   0.707  0.0627 -0.0748  0.1522
 1781SOL    HW1 5659   3.047   2.760   0.769 -0.1512  0.0540 -0.0367
 1781SOL    HW2 5660   3.153   2.679   0.697  0.0945  1.4919 -1.3627
 1782SOL     OW 5661   0.509   2.948   4.231 -0.1312 -0.2447  0.0228
 1782SOL    HW1 5662   0.436   2.892   4.203  0.4724 -0.8202 -0.4244
 1782SOL    HW2 5663   0.524   2.924   4.322 -2.1198  1.6507  0.9616
 1783SOL     OW 5664   4.448   3.029   5.191  1.3099 -0.5985  0.2436
 1783SOL    HW1 5665   4.386   2.975   5.141 -0.5056  0.5157  1.2044
 1783SOL    HW2 5666   4.453   3.111   5.141  0.8000 -0.1151  0.9718
 1784SOL     OW 5667   2.226   1.896   5.309  0.1221  0.1405  0.1173
 1784SOL    HW1 5668   2.131   1.884   5.307 -0.0055  1.0748 -0.1163
 1784SOL    HW2 5669   2.253   1.858   5.392 -0.5486  0.4251  0.4792
 1785SOL     OW 5670   2.834   1.546   1.301  0.3077  0.3311  0.5322
 1785SOL    HW1 5671   2.896   1.582   1.237  1.4670 -1.2633  0.6911
 1785SOL    HW2 5672   2.881   1.473   1.341 -0.4922  1.0599  3.0003
 1786SOL     OW 5673   4.291   0.735   4.763  0.0027 -0.2123 -0.8628
 1786SOL    HW1 5674   4.293   0.705   4.672 -0.9288 -1.3188 -0.5382
 1786SOL    HW2 5675   4.259   0.825   4.758 -2.0945 -0.9421 -1.4873
 1787SOL     OW 5676   3.447   4.034   3.394  0.9972 -0.2346  0.7169
 1787SOL    HW1 5677   3.429   3.973   3.465 -0.0883  0.0316  0.6934
 1787SOL    HW2 5678   3.512   3.990   3.339  1.2772 -0.7574  1.4654
 1788SOL     OW 5679   5.486   1.486   1.322  0.2024  0.3304 -0.1954
 1788SOL    HW1 5680   5.445   1.459   1.239 -2.4476  0.2094  1.0251
 1788SOL    HW2 5681   5.439   1.566   1.347 -0.9425 -1.0034  2.3678
 1789SOL     OW 5682   1.382   5.320   1.908  0.5873  0.6184  0.2128
 1789SOL    HW1 5683   1.286   5.321   1.913  0.6078  0.4321  0.8132
 1789SOL    HW2 5684   1.410   5.325   2.000  1.1438  0.1273  0.0777
 1790SOL     OW 5685   3.456   0.216   5.049 -0.0268 -0.0544 -0.4096
 1790SOL    HW1 5686   3.538   0.168   5.049  1.1321  1.8201  0.0802
 1790SOL    HW2 5687   3.392   0.155   5.086  0.5975 -2.3173 -2.8485
 1791SOL     OW 5688   3.536   4.695   4.637  0.1095  0.2172 -0.6119
 1791SOL    HW1 5689   3.442   4.680   4.621  0.3175 -2.0713  0.0027
 1791SOL    HW2 5690   3.579   4.657   4.561  0.5772  2.0744 -1.3476
 1792SOL     OW 5691   3.241   2.686   5.521 -0.0014  0.4894  0.0251
 1792SOL    HW1 5692   3.307   2.656   5.582 -2.2015  0.5751  2.6602
 1792SOL    HW2 5693   3.211   2.607   5.476  1.6543  0.4267 -1.0440
 1793SOL     OW 5694   2.554   1.610   2.203 -0.0886 -0.0948 -0.0940
 1793SOL    HW1 5695   2.604   1.626   2.283  1.0354  0.0437 -0.8068
 1793SOL    HW2 5696   2.521   1.696   2.178  0.4979  0.0500 -0.3823
 1794SOL     OW 5697   2.531   3.069   3.848 -0.0206 -0.3434 -0.4416
 1794SOL    HW1 5698   2.531   2.974   3.845  1.9047 -0.3836 -0.7641
 1794SOL    HW2 5699   2.564   3.091   3.935 -1.6519  0.0635  0.0914
 1795SOL     OW 5700   1.849   3.835   2.477 -0.3166 -0.2758 -0.1437
 1795SOL    HW1 5701   1.934   3.832   2.433 -0.2821  0.6757 -0.1639
 1795SOL    HW2 5702   1.838   3.927   2.501 -0.5018 -0.6956  1.5005
 1796SOL     OW 5703   4.749   4.921   0.189 -0.7429 -0.4216 -0.1553
 1796SOL    HW1 5704   4.704   4.899   0.108 -1.1253 -2.4039  0.5352
 1796SOL    HW2 5705   4.753   4.839   0.237  1.9051  0.0821  0.6612
 1797SOL     OW 5706   5.315   2.229   2.997 -0.2108 -0.0062  0.0384
 1797SOL    HW1 5707   5.305   2.220   2.902 -0.7187  0.9966 -0.0185
 1797SOL    HW2 5708   5.235   2.192   3.033 -0.0707 -0.2787  0.0701
 1798SOL     OW 5709   0.093   4.725   2.256  0.2897  0.2159  0.2934
 1798SOL    HW1 5710   0.127   4.636   2.261 -0.2961  0.0083  0.6745
 1798SOL    HW2 5711   0.066   4.735   2.164  1.9153  0.6077 -0.1869
 1799SOL     OW 5712   5.025   1.023   5.213  0.1719 -0.2908 -0.0815
 1799SOL    HW1 5713   5.014   1.091   5.147  2.1063 -0.9009 -1.1241
 1799SOL    HW2 5714   4.948   1.030   5.269 -0.3041  1.8738 -0.9339
 1800SOL     OW 5715   4.567   1.107   4.189  0.3098 -0.9434  0.0922
 1800SOL    HW1 5716   4.492   1.127   4.133  1.0421  1.7289 -0.0420
 1800SOL    HW2 5717   4.595   1.020   4.160 -2.5964 -1.9724  0.0729
 1801SOL     OW 5718   4.333   5.144   1.090  0.0199 -0.3638  0.2517
 1801SOL    HW1 5719   4.359   5.220   1.038  0.2112  0.0535  0.9332
 1801SOL    HW2 5720   4.416   5.101   1.111 -0.2180 -2.1778 -2.1584
 1802SOL     OW 5721   3.662   0.360   4.472  0.2037  0.4059 -0.3849
 1802SOL    HW1 5722   3.617   0.432   4.516 -0.8358  1.1600 -2.5389
 1802SOL    HW2 5723   3.605   0.337   4.399  1.5577 -1.1857 -1.0173
 1803SOL     OW 5724   1.532   1.429   5.316 -0.4709  0.8856  0.5618
 1803SOL    HW1 5725   1.558   1.341   5.289 -0.3973  0.9639  0.3754
 1803SOL    HW2 5726   1.513   1.421   5.410  1.1693  1.0387  0.9257
 1804SOL     OW 5727   5.166   1.161   4.178  0.6420  0.0897 -0.0702
 1804SOL    HW1 5728   5.139   1.071   4.159  0.1747  0.5536 -1.8519
 1804SOL    HW2 5729   5.261   1.161   4.169  0.6759 -0.3038  0.3046
 1805SOL     OW 5730   1.871   4.082   4.911  0.1793 -0.6123 -0.3617
 1805SOL    HW1 5731   1.920   4.163   4.924 -0.6205 -0.2045  0.1927
 1805SOL    HW2 5732   1.803   4.105   4.848 -0.9474 -0.4528  0.8860
 1806SOL     OW 5733   0.487   5.555   3.941  0.2580  0.5041  0.5364
 1806SOL    HW1 5734   0.510   5.482   3.999  1.0074  0.7808  0.6042
 1806SOL    HW2 5735   0.558   5.557   3.877 -0.4956  0.2833 -0.3223
 1807SOL     OW 5736   4.805   2.719   1.222 -0.1650 -0.8181 -1.0567
 1807SOL    HW1 5737   4.780   2.684   1.308  0.7737 -1.1583 -0.9158
 1807SOL    HW2 5738   4.752   2.669   1.160  1.0406 -2.4274 -0.8472
 1808SOL     OW 5739   4.353   4.784   0.237  0.2087  0.4980 -0.1828
 1808SOL    HW1 5740   4.403   4.754   0.162  0.4550  0.6284 -0.0736
 1808SOL    HW2 5741   4.368   4.879   0.240  0.8141  0.3911  0.4698
 1809SOL     OW 5742   5.385   2.675   2.895 -0.5866  0.5306  0.4980
 1809SOL    HW1 5743   5.401   2.608   2.961  0.3603 -0.1679 -0.3917
 1809SOL    HW2 5744   5.291   2.671   2.878 -0.7070  0.1690  1.2172
 1810SOL     OW 5745   4.423   4.361   0.541 -0.0366 -0.2331  0.0373
 1810SOL    HW1 5746   4.445   4.443   0.498 -2.2924 -0.4492 -1.7281
 1810SOL    HW2 5747   4.410   4.386   0.633 -1.9818  1.7321 -0.6738
 1811SOL     OW 5748   4.292   0.078   3.839  0.0832 -0.4447 -0.8050
 1811SOL    HW1 5749   4.210   0.038   3.869  0.0377 -0.2413 -0.6602
 1811SOL    HW2 5750   4.301   0.157   3.892 -0.7146  0.6855 -2.2909
 1812SOL     OW 5751   5.127   3.260   3.988  0.2702  0.4540 -0.4930
 1812SOL    HW1 5752   5.077   3.234   4.066 -1.1713 -0.0007 -1.5147
 1812SOL    HW2 5753   5.206   3.206   3.991 -0.0371  0.0264  0.3512
 1813SOL     OW 5754   0.052   5.294   2.102 -0.0547  0.0658 -0.2212
 1813SOL    HW1 5755  -0.019   5.291   2.166 -1.0511  1.2096 -1.2213
 1813SOL    HW2 5756   0.069   5.203   2.080  0.4540 -0.3890  1.7755
 1814SOL     OW 5757   5.424   2.383   3.607  0.5463  0.0254  0.4165
 1814SOL    HW1 5758   5.399   2.402   3.517  0.0132  0.2275  0.5979
 1814SOL    HW2 5759   5.344   2.400   3.658  1.3196  1.6635  1.1586
 1815SOL     OW 5760   5.487   2.800   0.650 -0.5401 -0.1487 -0.0169
 1815SOL    HW1 5761   5.505   2.711   0.621  1.4009  0.3933 -0.6692
 1815SOL    HW2 5762   5.443   2.841   0.576  1.0715  0.1768 -0.8475
 1816SOL     OW 5763   3.171   5.186   1.018  0.4565 -0.0528  0.5295
 1816SOL    HW1 5764   3.113   5.111   1.025 -0.5830  0.7508  0.8065
 1816SOL    HW2 5765   3.243   5.166   1.077 -0.2656 -0.4357  1.2975
 1817SOL     OW 5766   3.936   0.107   1.362  0.3443 -0.0630  0.5379
 1817SOL    HW1 5767   3.851   0.149   1.375  0.3284  0.1066 -0.0585
 1817SOL    HW2 5768   3.999   0.169   1.397  0.3584  0.7059 -0.7875
 1818SOL     OW 5769   5.533   5.102   2.317 -0.1214  0.7889  0.6555
 1818SOL    HW1 5770   5.445   5.066   2.324 -0.7360  1.9557 -0.6956
 1818SOL    HW2 5771   5.565   5.073   2.232  1.1831 -0.3883  1.5108
 1819SOL     OW 5772   0.597   2.969   5.039 -0.4479  0.3658 -0.1255
 1819SOL    HW1 5773   0.546   3.006   5.111 -2.3167 -1.5633 -0.3705
 1819SOL    HW2 5774   0.688   2.990   5.061 -1.0279  0.6474  2.2945
 1820SOL     OW 5775   3.349   2.796   3.679  0.1355  0.2144 -0.2393
 1820SOL    HW1 5776   3.258   2.803   3.651 -0.4170 -2.5070  0.6294
 1820SOL    HW2 5777   3.397   2.774   3.599 -0.0157  1.0994 -0.5891
 1821SOL     OW 5778   3.041   2.538   4.039 -0.0408 -0.1938 -0.2780
 1821SOL    HW1 5779   3.091   2.617   4.014 -0.6915  0.5148  0.6066
 1821SOL    HW2 5780   2.998   2.562   4.121 -0.7168 -1.2806 -0.3012
 1822SOL     OW 5781   1.303   2.132   0.581 -0.4694  0.4527  0.1473
 1822SOL    HW1 5782   1.227   2.082   0.607 -2.8169  3.5231 -0.1836
 1822SOL    HW2 5783   1.297   2.137   0.485 -0.3667  1.3861  0.1752
 1823SOL     OW 5784   2.291   3.387   1.109 -0.6277 -0.3708  0.2444
 1823SOL    HW1 5785   2.285   3.299   1.147 -0.0498 -0.7567 -0.5478
 1823SOL    HW2 5786   2.208   3.429   1.134 -0.8249 -1.0641  0.7999
 1824SOL     OW 5787   2.427   2.661   1.133  0.0131 -0.1435 -0.1127
 1824SOL    HW1 5788   2.370   2.625   1.201  1.6038  0.0642  1.3924
 1824SOL    HW2 5789   2.371   2.723   1.086 -0.7415  0.9519  2.0722
 1825SOL     OW 5790   4.286   0.022   0.309 -0.1695  0.2460  0.1829
 1825SOL    HW1 5791   4.272   0.116   0.312  1.1531  0.4697 -0.1519
 1825SOL    HW2 5792   4.329   0.007   0.224  0.0352 -0.5970  0.4269
 1826SOL     OW 5793   4.393   1.720   1.265 -0.4230  0.4922 -0.7953
 1826SOL    HW1 5794   4.414   1.786   1.199 -0.3655  1.7546  0.4374
 1826SOL    HW2 5795   4.366   1.643   1.214 -2.2211  1.9947 -2.2964
 1827SOL     OW 5796   5.434   0.738   0.653 -0.2979  0.0014 -0.0577
 1827SOL    HW1 5797   5.355   0.724   0.706 -0.2662 -1.5405 -0.3626
 1827SOL    HW2 5798   5.496   0.779   0.713 -0.4886 -1.1007  0.9177
 1828SOL     OW 5799   0.066   3.699   2.142 -0.1358  0.2799  0.7065
 1828SOL    HW1 5800   0.119   3.620   2.133 -1.3597 -0.5865  0.8555
 1828SOL    HW2 5801   0.126   3.764   2.180  0.9775 -0.4622  0.2757
 1829SOL     OW 5802   3.272   4.307   0.902 -0.0815 -0.5868 -0.2661
 1829SOL    HW1 5803   3.198   4.359   0.869 -0.7875 -0.9262  0.7047
 1829SOL    HW2 5804   3.230   4.232   0.946  0.8295 -0.6392  0.5403
 1830SOL     OW 5805   2.275   1.021   2.129 -0.0998 -0.3562 -0.2229
 1830SOL    HW1 5806   2.209   1.017   2.198 -0.0315 -0.8912 -0.1876
 1830SOL    HW2 5807   2.351   1.061   2.171 -1.5734  4.0253 -1.2103
 1831SOL     OW 5808   5.328   4.967   0.344  0.2973  0.2765 -0.4098
 1831SOL    HW1 5809   5.366   5.048   0.311  0.6080  0.5091  0.4775
 1831SOL    HW2 5810   5.318   4.911   0.267  1.9377  0.4177 -0.7510
 1832SOL     OW 5811   5.266   2.134   0.546  0.6707  0.0576  0.5672
 1832SOL    HW1 5812   5.258   2.226   0.570  0.4494  0.7005 -1.7366
 1832SOL    HW2 5813   5.220   2.087   0.615 -1.1701  1.8564  0.6579
 1833SOL     OW 5814   1.393   5.093   1.602  0.2502  0.0996  0.0404
 1833SOL    HW1 5815   1.480   5.053   1.608  0.0364 -0.7983 -1.9046
 1833SOL    HW2 5816   1.396   5.143   1.520 -0.4316  1.7689  1.0022
 1834SOL     OW 5817   2.990   0.977   4.730  0.1786  0.1023 -0.5328
 1834SOL    HW1 5818   3.083   0.953   4.731  0.2749  0.4788  0.3252
 1834SOL    HW2 5819   2.962   0.958   4.641  1.1149  0.1113 -0.8438
 1835SOL     OW 5820   1.136   3.897   0.170  0.0432 -0.7240  0.4420
 1835SOL    HW1 5821   1.059   3.941   0.204  1.4757  1.5423  0.9270
 1835SOL    HW2 5822   1.101   3.820   0.124 -2.4062 -0.2002  1.2779
 1836SOL     OW 5823   1.692   2.923   0.202 -0.5586 -0.1909 -0.1998
 1836SOL    HW1 5824   1.657   2.966   0.124  1.8006 -0.8351 -1.7014
 1836SOL    HW2 5825   1.786   2.942   0.200 -0.2976 -0.9884  2.0121
 1837SOL     OW 5826   0.593   2.633   1.129  0.7434  0.2273 -0.4900
 1837SOL    HW1 5827   0.541   2.712   1.116 -0.9246 -0.3248  2.1125
 1837SOL    HW2 5828   0.641   2.649   1.210 -1.0940 -2.0105  1.2057
 1838SOL     OW 5829   2.715   3.940   0.265 -0.2200 -0.0072 -0.2542
 1838SOL    HW1 5830   2.730   3.940   0.171 -2.1995  2.7050 -0.6887
 1838SOL    HW2 5831   2.787   3.992   0.301 -0.4884  0.5735 -0.5401
 1839SOL     OW 5832   4.042   4.224   3.532 -0.0439  0.3393  0.3374
 1839SOL    HW1 5833   3.998   4.163   3.591 -1.4847  1.9737  1.0358
 1839SOL    HW2 5834   3.978   4.241   3.463  1.1153 -0.4821 -0.9810
 1840SOL     OW 5835   1.389   3.812   5.376  0.2446 -0.5137  0.0090
 1840SOL    HW1 5836   1.362   3.831   5.466  1.0167  2.2706 -0.2437
 1840SOL    HW2 5837   1.478   3.778   5.383  0.6210  0.4932  0.2996
 1841SOL     OW 5838   2.679   5.122   0.686 -0.2878 -0.2518 -0.5102
 1841SOL    HW1 5839   2.620   5.160   0.751  0.4804  0.9381 -0.4785
 1841SOL    HW2 5840   2.731   5.196   0.654  0.4208 -1.0805 -1.3511
 1842SOL     OW 5841   2.842   5.054   1.378  0.0636  0.6031 -0.2014
 1842SOL    HW1 5842   2.831   4.992   1.450  0.1524  2.6121  1.6561
 1842SOL    HW2 5843   2.758   5.053   1.333 -0.0564 -0.5791  0.0198
 1843SOL     OW 5844   1.589   3.826   1.587 -0.6238 -0.4042 -0.4166
 1843SOL    HW1 5845   1.557   3.823   1.497  1.6842  0.1295 -1.3479
 1843SOL    HW2 5846   1.567   3.914   1.617 -0.6912 -0.2922 -0.7845
 1844SOL     OW 5847   1.224   4.765   4.606  0.0720  0.0444  0.2818
 1844SOL    HW1 5848   1.177   4.750   4.688  0.7422 -1.4912  0.4222
 1844SOL    HW2 5849   1.158   4.749   4.538  0.1246 -1.1581  0.4912
 1845SOL     OW 5850   5.245   2.083   4.556 -0.1087  0.1408  0.1915
 1845SOL    HW1 5851   5.205   2.170   4.567  1.6798  1.0917 -0.4454
 1845SOL    HW2 5852   5.186   2.037   4.497 -0.9731  0.9967  0.3589
 1846SOL     OW 5853   4.930   0.183   5.418 -0.1116  0.5503  0.3488
 1846SOL    HW1 5854   4.963   0.147   5.335  1.8909  1.3368  0.7605
 1846SOL    HW2 5855   4.929   0.108   5.477  0.2734  0.3716  0.1331
 1847SOL     OW 5856   1.743   4.706   4.402 -0.0384  0.2744  0.2293
 1847SOL    HW1 5857   1.790   4.788   4.388  0.9515  0.2243  2.8020
 1847SOL    HW2 5858   1.713   4.711   4.492 -0.0464 -2.1595  0.4189
 1848SOL     OW 5859   0.045   0.904   1.988 -0.4619 -0.2127 -0.4344
 1848SOL    HW1 5860   0.064   0.935   1.900 -1.5150 -0.0268 -0.6097
 1848SOL    HW2 5861   0.032   0.983   2.040 -0.9237 -0.3273 -0.3670
 1849SOL     OW 5862   4.398   5.210   5.552 -0.1524  0.0673  0.0866
 1849SOL    HW1 5863   4.332   5.166   5.606  0.0437 -0.5381 -0.1535
 1849SOL    HW2 5864   4.428   5.142   5.491  1.4119  0.0377  0.8406
 1850SOL     OW 5865   1.120   1.697   5.363 -0.6171  0.5563  0.1544
 1850SOL    HW1 5866   1.163   1.781   5.345 -0.1377  1.0341  3.0736
 1850SOL    HW2 5867   1.063   1.715   5.437 -0.4103 -1.7322  0.9397
 1851SOL     OW 5868   3.106   0.229   2.917  0.2796  0.0478  0.0876
 1851SOL    HW1 5869   3.172   0.218   2.986  1.3723  0.8758 -0.7929
 1851SOL    HW2 5870   3.106   0.146   2.870  2.5496  0.8075 -1.4454
 1852SOL     OW 5871   3.961   3.276   1.533 -0.5764  0.2432 -0.3963
 1852SOL    HW1 5872   3.974   3.286   1.438  0.0339 -0.9818 -0.4693
 1852SOL    HW2 5873   3.956   3.181   1.546  1.0931  0.2896  0.9927
 1853SOL     OW 5874   3.621   0.417   0.768 -0.3661  0.0971  0.1595
 1853SOL    HW1 5875   3.665   0.455   0.692 -1.7407  0.4780 -0.4688
 1853SOL    HW2 5876   3.685   0.355   0.804  0.4407  0.1781 -1.0835
 1854SOL     OW 5877   4.183   1.326   0.874 -0.2481  0.0547 -0.3535
 1854SOL    HW1 5878   4.231   1.387   0.931 -1.8519 -0.4566  1.6437
 1854SOL    HW2 5879   4.121   1.381   0.827  1.5174  0.5742 -2.1964
 1855SOL     OW 5880   3.827   1.414   5.124 -0.1311 -0.1231  0.1418
 1855SOL    HW1 5881   3.738   1.382   5.135  0.4190 -1.1160  2.1274
 1855SOL    HW2 5882   3.835   1.486   5.187  0.6933 -0.5878  0.5934
 1856SOL     OW 5883   4.777   5.133   2.052  0.2550 -0.1917  0.5086
 1856SOL    HW1 5884   4.849   5.071   2.036  0.7205  0.6217 -0.6743
 1856SOL    HW2 5885   4.698   5.079   2.043  0.6261 -0.5240 -1.1955
 1857SOL     OW 5886   1.546   2.407   2.326  0.0873  0.3530  0.3384
 1857SOL    HW1 5887   1.508   2.407   2.238  2.5053  1.4096 -0.7766
 1857SOL    HW2 5888   1.600   2.486   2.329 -0.3027  0.5975  2.9728
 1858SOL     OW 5889   0.286   1.064   4.719 -0.4761 -0.4414  0.2684
 1858SOL    HW1 5890   0.255   1.154   4.729 -0.1256 -0.2299 -0.4636
 1858SOL    HW2 5891   0.252   1.018   4.796  0.2734  0.5643  1.2324
 1859SOL     OW 5892   2.175   0.695   4.680  0.2243 -0.6327  0.3380
 1859SOL    HW1 5893   2.213   0.631   4.620  2.6475  0.1391  0.9655
 1859SOL    HW2 5894   2.209   0.671   4.766  0.7599  1.1354  0.6682
 1860SOL     OW 5895   5.383   0.151   4.057  0.9710 -0.0008 -0.3533
 1860SOL    HW1 5896   5.390   0.239   4.020 -0.3895 -0.3634 -1.5605
 1860SOL    HW2 5897   5.410   0.092   3.986 -1.2572 -0.6934 -0.6870
 1861SOL     OW 5898   3.259   0.641   4.854  0.7419 -0.1510 -0.0526
 1861SOL    HW1 5899   3.312   0.573   4.896  0.0793  0.0252  1.1122
 1861SOL    HW2 5900   3.171   0.604   4.852  0.1209  1.1344  1.7302
 1862SOL     OW 5901   1.933   1.967   3.679  0.2390  0.0182 -0.5263
 1862SOL    HW1 5902   2.020   2.006   3.667  0.3460  0.1572  0.6234
 1862SOL    HW2 5903   1.951   1.878   3.709 -0.0249 -0.2690 -1.1891
 1863SOL     OW 5904   1.029   2.710   0.086 -0.2266 -0.2229  0.2676
 1863SOL    HW1 5905   1.038   2.623   0.126  0.9888  0.2185  0.9982
 1863SOL    HW2 5906   1.018   2.769   0.160 -1.7374  0.1924 -0.2602
 1864SOL     OW 5907   0.816   3.912   2.137  0.2721  0.1389 -0.3159
 1864SOL    HW1 5908   0.891   3.920   2.078 -1.3832  0.4724 -2.5075
 1864SOL    HW2 5909   0.754   3.857   2.090  0.1121 -2.4194  2.5649
 1865SOL     OW 5910   0.312   2.972   0.328 -0.1090 -0.0031 -0.8212
 1865SOL    HW1 5911   0.385   2.938   0.275 -0.4454 -0.4549 -1.0007
 1865SOL    HW2 5912   0.268   2.894   0.361  1.4029  0.2341  2.0113
 1866SOL     OW 5913   0.272   1.110   5.257  0.1269 -0.0027  0.0614
 1866SOL    HW1 5914   0.326   1.175   5.211  0.3996 -0.6580 -0.5650
 1866SOL    HW2 5915   0.244   1.154   5.337  1.1017  0.5539  0.1075
 1867SOL     OW 5916   0.945   2.506   1.649  0.0499  0.1777  0.0945
 1867SOL    HW1 5917   0.899   2.482   1.568 -0.9300  1.0872  0.3561
 1867SOL    HW2 5918   0.889   2.472   1.719 -0.7379  2.0829  0.4445
 1868SOL     OW 5919   4.305   1.344   1.798  0.0291 -0.4833 -0.2094
 1868SOL    HW1 5920   4.210   1.347   1.812  0.0381  1.0360 -0.3115
 1868SOL    HW2 5921   4.328   1.252   1.811 -1.6158 -1.1031 -1.2869
 1869SOL     OW 5922   2.929   3.560   1.964  0.1258  0.1202 -0.2670
 1869SOL    HW1 5923   3.006   3.540   1.911 -0.3404  1.5262 -1.5636
 1869SOL    HW2 5924   2.881   3.477   1.969  0.4340 -0.1754 -1.6794
 1870SOL     OW 5925   3.540   5.459   2.040  0.6058  0.4045  0.3622
 1870SOL    HW1 5926   3.466   5.403   2.066  1.5300 -1.1500 -0.2301
 1870SOL    HW2 5927   3.581   5.484   2.123  0.6637 -0.4776  0.6029
 1871SOL     OW 5928   0.067   3.673   3.066  0.1814  0.0160  0.3447
 1871SOL    HW1 5929   0.106   3.591   3.097  0.5558 -0.7223 -1.8868
 1871SOL    HW2 5930   0.142   3.732   3.053  0.2947 -0.4239 -1.1658
 1872SOL     OW 5931   4.331   4.966   0.514  0.9333 -0.5112  0.2749
 1872SOL    HW1 5932   4.292   5.027   0.576  2.1809  2.2496 -1.4838
 1872SOL    HW2 5933   4.408   4.931   0.559 -0.7107 -2.2682  1.9342
 1873SOL     OW 5934   4.721   2.378   2.254 -0.2631  0.5724  0.1629
 1873SOL    HW1 5935   4.635   2.415   2.236  0.3520  1.7574 -0.4464
 1873SOL    HW2 5936   4.753   2.427   2.329 -0.4035 -0.3756  0.8650
 1874SOL     OW 5937   1.345   0.388   0.714 -0.7110 -0.3784  0.3234
 1874SOL    HW1 5938   1.360   0.324   0.783 -1.0208 -0.5215  0.2600
 1874SOL    HW2 5939   1.379   0.347   0.634 -0.0042 -0.0585  0.4519
 1875SOL     OW 5940   0.735   5.333   2.238  0.4774  0.0589 -0.3611
 1875SOL    HW1 5941   0.761   5.299   2.152  0.9211  1.6224 -0.8886
 1875SOL    HW2 5942   0.751   5.428   2.232 -2.0134  0.5981  0.5412
 1876SOL     OW 5943   4.997   2.982   1.864 -0.1632  0.0840  0.1546
 1876SOL    HW1 5944   5.047   3.029   1.932 -0.8169  1.9174 -0.5695
 1876SOL    HW2 5945   4.945   2.918   1.913  2.9553 -2.1035  0.9289
 1877SOL     OW 5946   0.650   3.654   3.629  0.0411  0.3140 -0.0824
 1877SOL    HW1 5947   0.745   3.652   3.615  0.0351  1.6199 -0.4125
 1877SOL    HW2 5948   0.640   3.695   3.715 -0.1973 -1.0622  0.5769
 1878SOL     OW 5949   4.534   4.901   5.195  0.1183 -0.0371  0.4402
 1878SOL    HW1 5950   4.537   4.987   5.154  1.4107  0.0229  0.6188
 1878SOL    HW2 5951   4.455   4.860   5.160  0.8700  0.2159 -1.6765
 1879SOL     OW 5952   4.216   1.606   4.090  0.4738 -0.2797 -0.2213
 1879SOL    HW1 5953   4.173   1.663   4.154  1.8497  1.1720 -0.5423
 1879SOL    HW2 5954   4.233   1.663   4.015 -1.9557 -2.1353 -2.3780
 1880SOL     OW 5955   2.702   2.603   5.489 -0.1504 -0.1618  0.1487
 1880SOL    HW1 5956   2.763   2.562   5.428  1.2082  0.4727  1.0450
 1880SOL    HW2 5957   2.681   2.533   5.552  2.7083  0.5476  2.0897
 1881SOL     OW 5958   1.199   0.310   1.141 -0.2069  0.2095  0.0075
 1881SOL    HW1 5959   1.204   0.317   1.237  1.0049 -0.3810  0.0108
 1881SOL    HW2 5960   1.116   0.264   1.125 -0.6172  0.6686  0.7389
 1882SOL     OW 5961   4.984   3.016   0.961  0.5296  0.5292 -0.1333
 1882SOL    HW1 5962   4.953   3.019   1.051 -0.3385  0.2118 -0.4108
 1882SOL    HW2 5963   5.046   3.089   0.954  0.9403  0.2794  0.8315
 1883SOL     OW 5964   4.929   1.559   0.245 -0.0762 -0.1050 -0.4192
 1883SOL    HW1 5965   4.905   1.624   0.180  0.1279  1.8964  1.3820
 1883SOL    HW2 5966   5.018   1.533   0.222  0.0080  0.6072 -0.9200
 1884SOL     OW 5967   1.005   0.138   1.100 -0.0766 -0.4371  0.4711
 1884SOL    HW1 5968   0.985   0.052   1.063 -0.1497  0.4618 -1.6682
 1884SOL    HW2 5969   0.929   0.158   1.156  0.2741 -2.0346  1.6052
 1885SOL     OW 5970   2.666   2.819   4.721 -0.0063 -0.2107 -0.2118
 1885SOL    HW1 5971   2.747   2.850   4.759  0.1679 -0.7811 -0.1112
 1885SOL    HW2 5972   2.644   2.740   4.770 -2.3373  1.6283  1.9744
 1886SOL     OW 5973   5.483   2.015   1.558  0.0641  0.5342 -0.1339
 1886SOL    HW1 5974   5.407   1.986   1.609 -0.5481  1.2375 -0.6189
 1886SOL    HW2 5975   5.526   1.934   1.530  0.7242  0.1200  1.9254
 1887SOL     OW 5976   4.249   1.449   0.224  0.4165  0.3383 -0.0747
 1887SOL    HW1 5977   4.316   1.502   0.180  1.1920  0.1572  0.8670
 1887SOL    HW2 5978   4.268   1.458   0.317 -0.4728 -0.2574  0.1819
 1888SOL     OW 5979   4.350   4.034   2.665 -0.8705  0.1978  0.2048
 1888SOL    HW1 5980   4.339   3.954   2.717 -1.0681  0.1540  0.0962
 1888SOL    HW2 5981   4.264   4.075   2.667 -1.0917 -0.2037 -0.7559
 1889SOL     OW 5982   5.211   2.252   1.332 -0.1316 -0.0705 -0.4612
 1889SOL    HW1 5983   5.156   2.243   1.410 -1.9579 -1.4974 -1.8355
 1889SOL    HW2 5984   5.301   2.254   1.367 -0.6865 -3.1081  1.6138
 1890SOL     OW 5985   0.731   4.395   1.266  0.1631  0.1448 -0.5395
 1890SOL    HW1 5986   0.737   4.447   1.347 -0.8401  2.6598 -1.9744
 1890SOL    HW2 5987   0.761   4.454   1.198  0.8543 -1.8828 -2.0849
 1891SOL     OW 5988   4.428   5.265   3.533 -0.1336 -0.4020  0.4710
 1891SOL    HW1 5989   4.479   5.270   3.614 -2.4838  1.1689  2.0041
 1891SOL    HW2 5990   4.493   5.269   3.463  1.9012  0.1857  2.2875
 1892SOL     OW 5991   0.652   2.541   0.151  0.3139 -0.3693  0.2278
 1892SOL    HW1 5992   0.680   2.530   0.061  0.2616 -1.2375  0.3073
 1892SOL    HW2 5993   0.557   2.528   0.148  0.0242  1.5733  0.1096
 1893SOL     OW 5994   0.705   3.486   5.273  0.3302 -0.1285 -0.7534
 1893SOL    HW1 5995   0.713   3.568   5.321  0.4063  0.9769 -2.5394
 1893SOL    HW2 5996   0.745   3.504   5.188  0.2644 -1.9995 -1.2294
 1894SOL     OW 5997   0.333   2.134   4.844 -0.0721 -0.5758 -0.1347
 1894SOL    HW1 5998   0.288   2.050   4.851 -0.2440 -0.4375  0.5198
 1894SOL    HW2 5999   0.412   2.124   4.897 -0.3378 -0.1741  0.3515
 1895SOL     OW 6000   1.879   1.065   5.383 -0.2726 -0.3034 -0.4504
 1895SOL    HW1 6001   1.847   1.020   5.305  0.5862 -0.6906 -0.5848
 1895SOL    HW2 6002   1.925   0.998   5.433 -0.6727 -0.0252  0.3177
 1896SOL     OW 6003   2.913   2.386   5.505  0.0466  0.1975  0.8447
 1896SOL    HW1 6004   2.866   2.327   5.446  0.7739 -0.6925  1.1364
 1896SOL    HW2 6005   3.000   2.394   5.466 -0.1118  1.2743  0.6865
 1897SOL     OW 6006   1.228   2.602   0.773  0.1466 -0.6477  0.3984
 1897SOL    HW1 6007   1.268   2.538   0.714 -0.9445 -0.8689 -0.1211
 1897SOL    HW2 6008   1.187   2.549   0.841 -0.2013 -0.4816  0.3211
 1898SOL     OW 6009   5.307   5.284   4.970 -0.4525  0.0268 -0.6899
 1898SOL    HW1 6010   5.277   5.221   5.035  1.1128  0.0129  0.0669
 1898SOL    HW2 6011   5.304   5.369   5.015  2.9683 -0.2553  0.3918
 1899SOL     OW 6012   4.769   4.605   3.859 -0.0129  0.1832 -0.4951
 1899SOL    HW1 6013   4.707   4.599   3.932  0.4718 -1.8210 -0.1909
 1899SOL    HW2 6014   4.831   4.672   3.886  0.0303 -0.3671  0.8595
 1900SOL     OW 6015   2.831   2.180   0.449 -0.3429 -0.0855  0.1106
 1900SOL    HW1 6016   2.770   2.107   0.454 -0.5012  0.1338  3.0708
 1900SOL    HW2 6017   2.916   2.142   0.469  0.1576  0.0266 -1.6480
 1901SOL     OW 6018   1.654   4.991   1.679  0.2219  0.1861  0.1401
 1901SOL    HW1 6019   1.606   4.918   1.716  0.8454 -0.5438 -0.4462
 1901SOL    HW2 6020   1.738   4.953   1.652  0.7340  1.2094  0.2270
 1902SOL     OW 6021   5.538   4.653   1.303  0.1136 -0.0874  0.0841
 1902SOL    HW1 6022   5.577   4.727   1.257  0.3322 -0.1677  0.1398
 1902SOL    HW2 6023   5.465   4.625   1.248  0.9508 -0.7921 -0.6899
 1903SOL     OW 6024   3.354   2.403   3.114 -0.4825 -0.3455  0.3172
 1903SOL    HW1 6025   3.434   2.437   3.073 -0.4446  0.3278  0.9250
 1903SOL    HW2 6026   3.385   2.360   3.194 -0.7134 -0.2503  0.4579
 1904SOL     OW 6027   4.420   2.448   1.496  0.0216  0.3539 -0.0086
 1904SOL    HW1 6028   4.377   2.523   1.456 -3.0384 -0.4904  1.3649
 1904SOL    HW2 6029   4.361   2.374   1.477  0.6656 -0.8560  2.3345
 1905SOL     OW 6030   0.521   0.859   1.555 -0.0091  0.0624  0.2594
 1905SOL    HW1 6031   0.466   0.909   1.615 -2.3610 -1.0287 -0.8702
 1905SOL    HW2 6032   0.543   0.920   1.486  2.2559  1.1677  1.8205
 1906SOL     OW 6033   2.910   3.576   1.175 -0.0779 -0.0055 -0.1620
 1906SOL    HW1 6034   2.912   3.649   1.236 -0.4723 -0.0909 -0.0414
 1906SOL    HW2 6035   2.836   3.596   1.117 -0.2524 -0.3600 -0.0620
 1907SOL     OW 6036   3.067   4.447   0.782 -0.5262  0.1937 -0.2784
 1907SOL    HW1 6037   3.102   4.406   0.703 -0.4226 -0.9258  0.3206
 1907SOL    HW2 6038   2.972   4.439   0.775 -0.4713 -1.7694  0.6231
 1908SOL     OW 6039   3.313   4.190   1.298  0.2378  0.0730 -0.1979
 1908SOL    HW1 6040   3.330   4.260   1.234  1.0891  1.9130  1.9337
 1908SOL    HW2 6041   3.399   4.154   1.317 -0.1195 -1.1186 -0.7297
 1909SOL     OW 6042   0.126   4.302   1.231  0.0048  0.0271  0.0861
 1909SOL    HW1 6043   0.208   4.284   1.278 -0.4009  0.9520  1.2099
 1909SOL    HW2 6044   0.144   4.277   1.141 -0.2743 -5.3710  1.2040
 1910SOL     OW 6045   0.497   1.209   3.295  0.2236  0.0686 -0.3558
 1910SOL    HW1 6046   0.534   1.169   3.216 -1.9890 -1.8181 -0.5653
 1910SOL    HW2 6047   0.548   1.171   3.367  0.6075 -0.1881 -0.7582
 1911SOL     OW 6048   2.929   5.255   3.398  0.1728  0.2401  0.0865
 1911SOL    HW1 6049   2.890   5.240   3.312 -0.8766  1.4497  0.3244
 1911SOL    HW2 6050   2.890   5.338   3.428  0.4184 -0.2228  1.7750
 1912SOL     OW 6051   2.574   3.861   0.835  0.2804 -0.4529 -0.5206
 1912SOL    HW1 6052   2.604   3.952   0.840  1.0576 -0.5369 -2.5895
 1912SOL    HW2 6053   2.621   3.816   0.905  1.7625  0.2944 -0.9921
 1913SOL     OW 6054   4.558   2.120   3.258  0.3503  0.1607 -0.2944
 1913SOL    HW1 6055   4.466   2.101   3.272  0.7757 -0.8282  1.5149
 1913SOL    HW2 6056   4.566   2.132   3.163 -1.3757 -1.1254 -0.6604
 1914SOL     OW 6057   0.796   0.856   3.615  0.0381  0.3396 -0.2486
 1914SOL    HW1 6058   0.735   0.790   3.647  0.9438 -0.2791  0.2486
 1914SOL    HW2 6059   0.859   0.867   3.686  1.0122  0.3117 -1.0832
 1915SOL     OW 6060   0.697   4.753   4.006  0.0836  0.6150 -0.4116
 1915SOL    HW1 6061   0.693   4.710   3.921  0.8432  1.2203 -0.7625
 1915SOL    HW2 6062   0.691   4.847   3.986  1.2867  0.8174  0.1044
 1916SOL     OW 6063   3.221   1.091   3.495  0.0978  0.1237 -0.1775
 1916SOL    HW1 6064   3.215   1.045   3.578  4.3423  1.5981  1.2033
 1916SOL    HW2 6065   3.263   1.029   3.436  4.8632  1.4040  1.3981
 1917SOL     OW 6066   2.204   1.303   2.915  0.0651  0.4827 -0.1825
 1917SOL    HW1 6067   2.229   1.333   2.827 -1.4309 -0.0158 -0.8054
 1917SOL    HW2 6068   2.250   1.220   2.925 -0.8904 -0.1847 -1.1190
 1918SOL     OW 6069   1.714   5.268   0.171  0.6066  0.1590 -0.0132
 1918SOL    HW1 6070   1.733   5.359   0.197 -0.4980  0.3785  0.0465
 1918SOL    HW2 6071   1.688   5.274   0.080 -1.4902  0.1880  0.5518
 1919SOL     OW 6072   4.678   0.661   3.667  0.1332  0.1238  0.4817
 1919SOL    HW1 6073   4.658   0.583   3.719  0.9171  0.7533  1.7592
 1919SOL    HW2 6074   4.735   0.713   3.723  1.8467  0.3637 -1.4075
 1920SOL     OW 6075   1.078   1.742   2.042  0.8309 -0.2718 -0.0727
 1920SOL    HW1 6076   1.076   1.703   2.129  0.9809 -0.7313 -0.2748
 1920SOL    HW2 6077   1.162   1.788   2.038  1.0307 -0.6363 -0.1389
 1921SOL     OW 6078   1.293   1.035   0.837  0.2052  0.0396  0.3959
 1921SOL    HW1 6079   1.365   1.025   0.774  0.3571  0.3558  0.5187
 1921SOL    HW2 6080   1.230   0.967   0.812  0.1068  0.3818 -0.3120
 1922SOL     OW 6081   0.704   1.963   3.051  0.2321 -0.5055 -0.0771
 1922SOL    HW1 6082   0.664   2.049   3.059  0.2047 -0.4833 -0.4589
 1922SOL    HW2 6083   0.647   1.916   2.990  0.4993 -0.6453 -0.2179
 1923SOL     OW 6084   5.547   0.668   4.685  0.2264  0.7530 -0.6033
 1923SOL    HW1 6085   5.503   0.693   4.603  1.0196 -0.3953 -1.4224
 1923SOL    HW2 6086   5.640   0.682   4.667  0.3087  2.1869  0.7543
 1924SOL     OW 6087   1.639   2.843   3.028 -0.3415  0.3509  0.1237
 1924SOL    HW1 6088   1.706   2.870   3.090  2.3260 -2.7278 -1.1596
 1924SOL    HW2 6089   1.609   2.758   3.061  0.6929 -1.0530 -2.3441
 1925SOL     OW 6090   1.194   4.979   1.751  0.3679  0.1169  0.2286
 1925SOL    HW1 6091   1.232   4.904   1.798  0.4020  1.1622  1.9489
 1925SOL    HW2 6092   1.268   5.019   1.705  0.4244 -0.6415 -0.3634
 1926SOL     OW 6093   2.936   4.160   3.201 -0.0060 -0.4215 -0.6373
 1926SOL    HW1 6094   3.003   4.140   3.266  0.6200  1.6466 -0.5924
 1926SOL    HW2 6095   2.985   4.186   3.123 -0.7664 -0.6918 -1.2244
 1927SOL     OW 6096   4.772   3.756   5.244  0.5444  0.1723 -0.0358
 1927SOL    HW1 6097   4.828   3.758   5.167  0.8994 -1.5928  0.1331
 1927SOL    HW2 6098   4.685   3.775   5.211  0.5355 -1.4459 -1.0727
 1928SOL     OW 6099   0.119   2.276   2.420  0.7543  0.0935  0.0080
 1928SOL    HW1 6100   0.142   2.318   2.503  0.4465 -1.2365  0.7948
 1928SOL    HW2 6101   0.027   2.251   2.431  0.3740  0.9010 -1.1789
 1929SOL     OW 6102   4.386   0.901   4.330  0.3067  0.7215 -0.3960
 1929SOL    HW1 6103   4.292   0.919   4.342  0.7264  2.7831  0.1732
 1929SOL    HW2 6104   4.423   0.984   4.302  1.9085 -0.2021 -1.1515
 1930SOL     OW 6105   0.235   2.014   2.117 -0.0215  0.8154 -0.2981
 1930SOL    HW1 6106   0.264   1.974   2.035 -0.6263 -0.4424  0.0735
 1930SOL    HW2 6107   0.246   1.944   2.182 -0.1514  1.5924  0.5756
 1931SOL     OW 6108   1.891   1.839   4.548 -0.1471  0.1067  0.3031
 1931SOL    HW1 6109   1.842   1.814   4.626 -0.6213 -0.6076 -0.2085
 1931SOL    HW2 6110   1.963   1.894   4.581  0.1136 -0.8123  1.3179
 1932SOL     OW 6111   2.321   4.970   5.412  0.0362  0.4892 -0.7798
 1932SOL    HW1 6112   2.293   5.051   5.455  0.5628 -0.1532  0.8547
 1932SOL    HW2 6113   2.336   4.995   5.321 -0.3959  2.0865 -0.4394
 1933SOL     OW 6114   4.108   2.598   2.719 -0.4577  0.3112 -0.1691
 1933SOL    HW1 6115   4.094   2.565   2.808 -0.7152  0.9977  0.0477
 1933SOL    HW2 6116   4.071   2.530   2.663  2.1341 -1.4810  0.1058
 1934SOL     OW 6117   5.360   2.463   5.365 -0.2837 -0.2441 -0.1582
 1934SOL    HW1 6118   5.342   2.375   5.398 -0.2121 -0.2169 -0.0438
 1934SOL    HW2 6119   5.451   2.479   5.391  0.1355 -0.6552 -1.3342
 1935SOL     OW 6120   4.520   0.433   0.024 -0.3689 -0.4107  0.0813
 1935SOL    HW1 6121   4.564   0.512  -0.007 -2.2162  0.1954 -1.1420
 1935SOL    HW2 6122   4.562   0.362  -0.024 -0.0673  0.0489 -0.3481
 1936SOL     OW 6123   1.108   0.203   0.538  0.1512 -0.3379 -0.8338
 1936SOL    HW1 6124   1.042   0.133   0.538 -1.1465  0.6941  2.2523
 1936SOL    HW2 6125   1.187   0.162   0.573 -0.2393 -0.5387 -0.1844
 1937SOL     OW 6126   1.053   0.122   1.894  0.5258  0.1314 -0.8720
 1937SOL    HW1 6127   1.012   0.057   1.837 -0.1798  0.0345 -0.2762
 1937SOL    HW2 6128   0.990   0.194   1.897  0.8973  0.4540 -0.8155
 1938SOL     OW 6129   0.783   1.387   1.618  0.5626 -0.2329  0.0094
 1938SOL    HW1 6130   0.842   1.437   1.562 -0.4790  0.3584 -0.5660
 1938SOL    HW2 6131   0.837   1.314   1.650  1.0981 -0.7495 -1.9831
 1939SOL     OW 6132   3.049   5.186   0.429 -0.0264  0.1076  0.3572
 1939SOL    HW1 6133   2.995   5.106   0.426 -0.1095  0.1558  0.5578
 1939SOL    HW2 6134   3.100   5.183   0.348  0.2370 -0.3368  0.5379
 1940SOL     OW 6135   1.277   2.406   2.833 -0.4832 -0.3180 -0.1458
 1940SOL    HW1 6136   1.187   2.432   2.813  0.0256  1.3383 -0.4585
 1940SOL    HW2 6137   1.311   2.372   2.750 -0.6693 -0.4848 -0.1538
 1941SOL     OW 6138   0.817   1.341   3.697  0.2713  0.4709  0.2808
 1941SOL    HW1 6139   0.731   1.375   3.671 -0.1087  0.9981  2.0882
 1941SOL    HW2 6140   0.846   1.289   3.622  0.0638  3.2696 -1.9356
 1942SOL     OW 6141   0.752   2.186   0.223  0.2527  0.6750 -0.2103
 1942SOL    HW1 6142   0.687   2.131   0.267  0.2701 -0.5926 -1.6795
 1942SOL    HW2 6143   0.833   2.135   0.227  0.5148  1.0459 -0.7172
 1943SOL     OW 6144   0.900   4.783   3.211 -0.7041  0.4816  0.1383
 1943SOL    HW1 6145   0.861   4.803   3.296 -0.1996 -1.5012  0.8751
 1943SOL    HW2 6146   0.927   4.692   3.217  0.5920  0.6849 -1.6886
 1944SOL     OW 6147   4.075   2.551   2.997  0.2060  0.1340  0.3281
 1944SOL    HW1 6148   4.156   2.502   3.008  1.0568  1.0046 -1.6026
 1944SOL    HW2 6149   4.006   2.486   3.011  1.2374 -0.8816  0.8786
 1945SOL     OW 6150   2.038   0.905   5.533  0.2085 -0.7631 -0.2032
 1945SOL    HW1 6151   2.010   0.983   5.583 -0.4953 -0.6050 -0.8178
 1945SOL    HW2 6152   2.132   0.916   5.523  0.4671 -1.0873  1.5731
 1946SOL     OW 6153   2.608   1.905   1.273  0.1705  0.2135 -0.5639
 1946SOL    HW1 6154   2.624   1.967   1.344  1.3194  1.2346 -1.6602
 1946SOL    HW2 6155   2.590   1.822   1.317 -2.1503  1.4274  0.9652
 1947SOL     OW 6156   3.577   4.224   1.077  0.4018  0.6184 -0.1184
 1947SOL    HW1 6157   3.526   4.243   0.998  2.3046  0.2185 -1.5303
 1947SOL    HW2 6158   3.549   4.136   1.103 -1.5584  1.4619  0.7929
 1948SOL     OW 6159   4.961   4.541   2.407 -0.3057  0.2629  0.1657
 1948SOL    HW1 6160   4.944   4.513   2.317 -1.4857 -0.0994  0.4922
 1948SOL    HW2 6161   4.877   4.572   2.439 -0.1314 -0.5346  1.4661
 1949SOL     OW 6162   2.428   5.489   0.110 -0.2198 -0.3945  0.1267
 1949SOL    HW1 6163   2.488   5.417   0.091 -0.6420 -0.9635  0.8692
 1949SOL    HW2 6164   2.485   5.563   0.134  0.2395 -0.2573 -1.3112
 1950SOL     OW 6165   3.131   3.399   1.818 -0.0542  0.0466  0.0347
 1950SOL    HW1 6166   3.149   3.474   1.761  1.0497  0.8163  1.3353
 1950SOL    HW2 6167   3.121   3.325   1.758  1.1560  0.7999 -1.1515
 1951SOL     OW 6168   2.196   5.303   2.786  0.1285 -0.0035 -0.3567
 1951SOL    HW1 6169   2.109   5.336   2.808  0.2494 -0.0026  0.1169
 1951SOL    HW2 6170   2.200   5.217   2.827  0.3813  0.0299 -0.3124
 1952SOL     OW 6171   4.426   0.160   5.196  0.6734 -0.0273 -0.5363
 1952SOL    HW1 6172   4.410   0.184   5.105  0.8416 -0.2541 -0.6268
 1952SOL    HW2 6173   4.348   0.189   5.243  0.3241 -0.4429 -0.8507
 1953SOL     OW 6174   0.066   5.003   2.078 -0.3567  0.1211 -0.1321
 1953SOL    HW1 6175   0.033   4.989   1.990 -0.0373 -0.9915 -0.0948
 1953SOL    HW2 6176   0.134   4.936   2.089  0.2910  0.8737  0.6109
 1954SOL     OW 6177   2.529   0.332   3.706  0.6966 -0.0781  0.0397
 1954SOL    HW1 6178   2.458   0.272   3.732 -0.2515  1.8325  2.2026
 1954SOL    HW2 6179   2.483   0.408   3.670  1.6325  1.1225  1.3155
 1955SOL     OW 6180   5.538   4.279   2.553 -0.0400  0.1107  0.1669
 1955SOL    HW1 6181   5.589   4.355   2.582  2.3022 -0.9844 -0.8592
 1955SOL    HW2 6182   5.535   4.222   2.630 -0.7860  0.6842  0.5812
 1956SOL     OW 6183   5.352   2.599   4.792  0.3772  0.2237 -0.5244
 1956SOL    HW1 6184   5.292   2.664   4.756  1.6995  1.9135  0.1449
 1956SOL    HW2 6185   5.354   2.617   4.886  1.1301 -0.4692 -0.3909
 1957SOL     OW 6186   4.670   1.911   2.154 -0.4543  0.0134  0.2517
 1957SOL    HW1 6187   4.630   1.825   2.161 -1.3911  0.3048 -1.1091
 1957SOL    HW2 6188   4.703   1.915   2.064  0.6153  0.6541  0.6494
 1958SOL     OW 6189   2.686   4.092   2.257  0.2719  0.2244  0.2381
 1958SOL    HW1 6190   2.595   4.071   2.235 -0.6022  2.0497  1.7312
 1958SOL    HW2 6191   2.729   4.008   2.268 -1.2836 -0.6853 -0.3767
 1959SOL     OW 6192   2.551   4.188   0.230  0.1234 -0.0064  0.7323
 1959SOL    HW1 6193   2.618   4.239   0.185  1.4355 -1.0213  1.4942
 1959SOL    HW2 6194   2.575   4.097   0.215 -2.9769 -0.5956 -1.8440
 1960SOL     OW 6195   1.986   5.411   1.381 -0.4358 -0.5243  0.1261
 1960SOL    HW1 6196   1.927   5.434   1.452  1.1720 -0.4647  1.4857
 1960SOL    HW2 6197   1.962   5.321   1.359 -0.2686 -0.9181  1.4700
 1961SOL     OW 6198   0.518   1.477   3.346 -0.3550  0.1644 -0.0371
 1961SOL    HW1 6199   0.510   1.382   3.336 -0.2798  0.2672 -1.1676
 1961SOL    HW2 6200   0.569   1.506   3.270 -0.9691  1.1933 -0.0818
 1962SOL     OW 6201   5.454   4.023   5.001  0.1222 -0.2660 -0.5413
 1962SOL    HW1 6202   5.485   3.954   5.060 -0.1814  0.1509  0.1302
 1962SOL    HW2 6203   5.361   4.031   5.022  0.6100  2.0227  1.2040
 1963SOL     OW 6204   0.400   2.387   2.311 -0.2112 -0.2400  0.0756
 1963SOL    HW1 6205   0.418   2.348   2.225  0.2642 -0.6034  0.3394
 1963SOL    HW2 6206   0.306   2.374   2.323 -0.6898  1.5960 -1.2680
 1964SOL     OW 6207   1.607   3.438   0.508 -0.2086  0.4391  0.6857
 1964SOL    HW1 6208   1.537   3.385   0.468  1.0306 -1.1079  0.4488
 1964SOL    HW2 6209   1.582   3.528   0.491 -1.1692 -0.1173 -1.1221
 1965SOL     OW 6210   4.127   1.039   4.305  0.4070 -0.7523  0.2709
 1965SOL    HW1 6211   4.041   1.075   4.281  0.6153 -1.5039 -1.8769
 1965SOL    HW2 6212   4.108   0.952   4.340  0.2327 -0.4733  0.8839
 1966SOL     OW 6213   5.545   0.967   3.579  0.0862  0.2359 -0.2644
 1966SOL    HW1 6214   5.462   0.924   3.601  0.9458 -0.8943  0.9098
 1966SOL    HW2 6215   5.572   0.926   3.497 -0.1727  0.1098 -0.2878
 1967SOL     OW 6216   2.240   4.052   1.762 -0.0993 -0.3381 -0.2607
 1967SOL    HW1 6217   2.239   4.092   1.849 -2.2150  1.4164 -0.9881
 1967SOL    HW2 6218   2.323   4.080   1.724  1.2546 -1.8348  1.4340
 1968SOL     OW 6219   5.143   0.895   1.282 -0.5047  0.4172 -0.0725
 1968SOL    HW1 6220   5.110   0.806   1.296 -0.1140  0.0778 -1.1662
 1968SOL    HW2 6221   5.122   0.914   1.191  1.2932  0.6103 -0.4839
 1969SOL     OW 6222   3.075   3.114   2.330 -0.1558 -0.5580  0.1921
 1969SOL    HW1 6223   3.095   3.145   2.242  0.2959 -1.0732  0.1093
 1969SOL    HW2 6224   3.009   3.175   2.362 -0.1173 -0.1979 -0.3955
 1970SOL     OW 6225   0.178   1.490   4.986  0.0842 -0.5394  0.4944
 1970SOL    HW1 6226   0.167   1.493   5.081  0.8162  0.2577  0.5652
 1970SOL    HW2 6227   0.180   1.582   4.960 -0.7271 -0.7536 -0.3717
 1971SOL     OW 6228   5.555   3.725   5.533 -0.5740 -0.1680 -0.3438
 1971SOL    HW1 6229   5.498   3.750   5.606  0.2543 -0.2588  0.3599
 1971SOL    HW2 6230   5.505   3.660   5.484 -0.9793 -0.4341  0.4011
 1972SOL     OW 6231   2.547   0.304   4.893  0.0290 -0.2094 -0.8273
 1972SOL    HW1 6232   2.472   0.321   4.950 -0.9110 -0.5631 -1.9385
 1972SOL    HW2 6233   2.568   0.389   4.855  0.6390  0.0220  0.0065
 1973SOL     OW 6234   0.223   1.239   3.225 -0.5695 -0.6167  0.0048
 1973SOL    HW1 6235   0.185   1.279   3.304  0.0546  0.4038 -0.1948
 1973SOL    HW2 6236   0.317   1.253   3.234 -0.6317  2.5785 -2.4661
 1974SOL     OW 6237   3.163   4.904   2.394 -0.2379 -0.0545  0.0700
 1974SOL    HW1 6238   3.198   4.845   2.461 -0.8094 -1.5452 -0.8808
 1974SOL    HW2 6239   3.237   4.958   2.367  1.2611 -2.6657 -1.4359
 1975SOL     OW 6240   2.940   0.123   0.794  0.2254  0.5185  0.4221
 1975SOL    HW1 6241   2.974   0.080   0.872 -0.4757 -1.1238 -0.1237
 1975SOL    HW2 6242   2.858   0.164   0.822  0.4186  0.6851  0.7427
 1976SOL     OW 6243   3.439   3.589   0.030 -0.0209 -0.4572 -0.1337
 1976SOL    HW1 6244   3.492   3.655  -0.016  0.5000 -0.6318  0.2092
 1976SOL    HW2 6245   3.497   3.513   0.037  0.1716 -0.1956  1.4408
 1977SOL     OW 6246   2.709   0.894   3.364  0.0556 -0.0279 -0.4472
 1977SOL    HW1 6247   2.800   0.862   3.365  0.5237  1.2505 -0.7856
 1977SOL    HW2 6248   2.656   0.814   3.370  1.1993 -0.7251  0.7717
 1978SOL     OW 6249   3.836   3.582   3.026  0.2256  0.6909  0.1084
 1978SOL    HW1 6250   3.888   3.502   3.039  0.5784  0.8778 -0.1370
 1978SOL    HW2 6251   3.761   3.571   3.084  0.0807  0.0085 -0.1935
 1979SOL     OW 6252   3.231   3.361   1.325  0.0957  0.1189  0.9123
 1979SOL    HW1 6253   3.282   3.428   1.372  0.2031 -1.0352  2.5227
 1979SOL    HW2 6254   3.271   3.278   1.351  0.2150 -0.6014 -1.3470
 1980SOL     OW 6255   2.090   5.347   4.841 -0.7551 -0.3665  0.5023
 1980SOL    HW1 6256   2.152   5.415   4.869 -1.4600 -0.2119  1.8117
 1980SOL    HW2 6257   2.092   5.349   4.746  3.0432 -2.0233  0.3834
 1981SOL     OW 6258   4.780   5.089   2.596 -0.1152 -0.3346 -0.2788
 1981SOL    HW1 6259   4.871   5.117   2.608 -0.2246  0.1806 -0.5935
 1981SOL    HW2 6260   4.784   4.994   2.593  0.2685 -0.3754  0.9152
 1982SOL     OW 6261   1.850   5.162   0.589 -0.1928  0.3107  0.4840
 1982SOL    HW1 6262   1.837   5.090   0.526  1.4606  1.0941 -0.8376
 1982SOL    HW2 6263   1.764   5.204   0.594 -0.5523 -0.2122 -0.7307
 1983SOL     OW 6264   3.176   4.035   0.523 -0.8674  0.4598 -0.3409
 1983SOL    HW1 6265   3.149   4.125   0.538 -0.6218  0.6816 -1.1402
 1983SOL    HW2 6266   3.182   4.027   0.427 -2.2610 -0.8108 -0.3652
 1984SOL     OW 6267   0.938   1.548   2.668  0.0666 -0.4466  0.4080
 1984SOL    HW1 6268   0.956   1.526   2.577  0.8794  1.8916 -0.0422
 1984SOL    HW2 6269   0.843   1.557   2.673  0.0304 -0.4886 -0.2190
 1985SOL     OW 6270   4.684   4.083   5.124  0.1269  0.5286 -0.0581
 1985SOL    HW1 6271   4.644   4.004   5.089 -0.8018  0.6382  0.7291
 1985SOL    HW2 6272   4.734   4.119   5.051  1.3682 -1.2899 -0.1676
 1986SOL     OW 6273   2.609   1.783   4.171  0.3728 -0.0973 -0.3505
 1986SOL    HW1 6274   2.662   1.838   4.112  0.0129  0.3930 -0.2239
 1986SOL    HW2 6275   2.538   1.841   4.200 -0.8300 -1.0257 -1.3115
 1987SOL     OW 6276   4.688   5.493   0.119 -0.0780  0.5029  0.4375
 1987SOL    HW1 6277   4.753   5.557   0.088 -2.8125  2.2442 -2.2617
 1987SOL    HW2 6278   4.712   5.412   0.075  2.0230  0.1966  1.9968
 1988SOL     OW 6279   4.673   4.021   0.837 -0.1187  0.4741  0.2907
 1988SOL    HW1 6280   4.763   4.027   0.871 -0.0986  0.5307  0.2263
 1988SOL    HW2 6281   4.681   3.967   0.759 -0.0060  1.2102 -0.2115
 1989SOL     OW 6282   1.977   1.101   0.730  0.6837 -0.3092 -0.2350
 1989SOL    HW1 6283   1.954   1.145   0.812 -0.1510 -2.2601  0.6399
 1989SOL    HW2 6284   2.068   1.075   0.741 -0.3335 -3.5425  1.5947
 1990SOL     OW 6285   4.388   0.181   4.124  0.1357 -0.0892 -0.6752
 1990SOL    HW1 6286   4.295   0.202   4.114  0.0935 -0.8609 -2.0909
 1990SOL    HW2 6287   4.434   0.257   4.089  0.0703  0.4645  0.3856
 1991SOL     OW 6288   2.345   4.679   1.581 -0.2499  0.6562  0.4661
 1991SOL    HW1 6289   2.372   4.633   1.660 -0.3480 -1.0636 -0.4646
 1991SOL    HW2 6290   2.298   4.757   1.613  3.0194  2.1177  2.1086
 1992SOL     OW 6291   1.859   5.216   3.643  0.2563 -0.4495  0.5254
 1992SOL    HW1 6292   1.949   5.191   3.662  0.8699  1.7040  0.6734
 1992SOL    HW2 6293   1.866   5.274   3.567 -0.9167  0.3022  0.9688
 1993SOL     OW 6294   0.265   5.485   5.321 -0.6707 -0.0276  0.3583
 1993SOL    HW1 6295   0.235   5.468   5.232  0.7225  2.8892 -0.8395
 1993SOL    HW2 6296   0.186   5.481   5.375 -2.1548  1.2822 -1.5846
 1994SOL     OW 6297   2.416   3.548   0.867 -0.3688  0.0774  0.1154
 1994SOL    HW1 6298   2.356   3.591   0.928  0.1859 -0.7072  1.2545
 1994SOL    HW2 6299   2.478   3.502   0.923  0.2930 -0.5011 -1.0525
 1995SOL     OW 6300   1.031   0.489   3.672 -0.7849 -0.4290 -0.1859
 1995SOL    HW1 6301   1.090   0.565   3.666 -0.2400 -0.9097 -1.0928
 1995SOL    HW2 6302   0.956   0.521   3.723  0.7925 -0.1625  2.0807
 1996SOL     OW 6303   2.705   5.132   0.241  0.0856 -0.1264 -0.1213
 1996SOL    HW1 6304   2.664   5.199   0.295 -0.2556 -1.0938  0.8662
 1996SOL    HW2 6305   2.640   5.061   0.238  0.0769 -0.0883 -1.8465
 1997SOL     OW 6306   0.698   2.250   4.231 -0.7030  0.4488 -0.6323
 1997SOL    HW1 6307   0.643   2.247   4.309  0.7171 -1.2191  0.3727
 1997SOL    HW2 6308   0.720   2.343   4.220  0.0193  0.6041  1.6813
 1998SOL     OW 6309   4.339   2.656   1.106 -0.3675  0.6832  0.3442
 1998SOL    HW1 6310   4.304   2.731   1.058  0.7032  0.9457 -0.0619
 1998SOL    HW2 6311   4.330   2.582   1.045  0.0133  0.8028  0.1398
 1999SOL     OW 6312   1.458   3.546   3.825  0.5652 -1.2207  0.1546
 1999SOL    HW1 6313   1.553   3.539   3.819  0.4348 -2.2362 -1.0394
 1999SOL    HW2 6314   1.424   3.485   3.760 -0.9036  0.1368 -0.4439
 2000SOL     OW 6315   1.777   0.704   1.678 -0.7868  0.1235 -0.6915
 2000SOL    HW1 6316   1.851   0.687   1.736 -2.2335 -0.0893  1.2316
 2000SOL    HW2 6317   1.726   0.771   1.725 -1.9623  0.0308 -1.7854
 2001SOL     OW 6318   0.890   3.056   2.354  0.1324  0.2584 -0.5486
 2001SOL    HW1 6319   0.805   3.089   2.383  0.2347 -1.2329  1.6861
 2001SOL    HW2 6320   0.954   3.113   2.396  0.2619 -1.4171  1.7140
 2002SOL     OW 6321   5.357   0.551   2.613  0.0973  0.4562 -0.1727
 2002SOL    HW1 6322   5.388   0.463   2.593 -1.7071  0.0325 -1.2642
 2002SOL    HW2 6323   5.282   0.538   2.670  0.8818  1.3908  1.1231
 2003SOL     OW 6324   4.547   0.752   2.626 -0.2060 -0.0740 -0.0342
 2003SOL    HW1 6325   4.521   0.813   2.557  1.2204  0.1185 -0.4384
 2003SOL    HW2 6326   4.592   0.682   2.580  1.6805  0.5606  0.7530
 2004SOL     OW 6327   2.248   3.041   1.912 -0.2570 -0.2376 -0.4092
 2004SOL    HW1 6328   2.161   3.025   1.875  0.2068 -1.6600 -0.9638
 2004SOL    HW2 6329   2.282   2.953   1.932 -0.9864  0.3370  4.7193
 2005SOL     OW 6330   1.154   2.648   3.278 -0.7959 -0.2397 -0.6874
 2005SOL    HW1 6331   1.212   2.633   3.353  1.3524 -0.2907 -2.2757
 2005SOL    HW2 6332   1.066   2.627   3.311  0.1820 -1.1178  1.5456
 2006SOL     OW 6333   0.187   4.167   2.778  0.2326  0.0584 -0.1556
 2006SOL    HW1 6334   0.210   4.182   2.686  1.0187  1.0706  0.1896
 2006SOL    HW2 6335   0.129   4.091   2.776  0.6720 -0.2692 -1.4358
 2007SOL     OW 6336   4.613   0.835   4.521  0.2275 -0.3630 -0.1448
 2007SOL    HW1 6337   4.616   0.740   4.535 -0.0989 -0.1750  1.3161
 2007SOL    HW2 6338   4.531   0.850   4.474 -0.4549 -0.6659  0.9173
 2008SOL     OW 6339   3.818   4.586   3.863  0.5355 -0.1439  0.4150
 2008SOL    HW1 6340   3.748   4.576   3.799  0.1386 -1.9177  1.0706
 2008SOL    HW2 6341   3.877   4.651   3.825 -1.1168  0.9188 -0.4445
 2009SOL     OW 6342   3.084   1.643   3.124 -0.4853  0.2159 -0.3908
 2009SOL    HW1 6343   3.081   1.605   3.037  1.1960  0.5016 -0.6046
 2009SOL    HW2 6344   3.104   1.736   3.109  2.6238 -0.2548  0.3424
 2010SOL     OW 6345   2.879   3.955   4.938  0.2350  0.0962 -0.6127
 2010SOL    HW1 6346   2.855   3.863   4.922  0.6565  0.2058 -1.9917
 2010SOL    HW2 6347   2.916   3.984   4.856 -0.3677  1.6786 -0.3497
 2011SOL     OW 6348   2.564   3.326   4.719  0.1227  0.2353  0.1428
 2011SOL    HW1 6349   2.657   3.307   4.709 -0.1367 -0.7505 -0.5253
 2011SOL    HW2 6350   2.536   3.271   4.792  0.1924  1.0282  0.7804
 2012SOL     OW 6351   2.485   3.656   2.084 -0.1602 -0.4174  0.1441
 2012SOL    HW1 6352   2.578   3.673   2.097 -0.3287  0.4853  0.2075
 2012SOL    HW2 6353   2.478   3.626   1.994  0.0794  0.4044 -0.1515
 2013SOL     OW 6354   1.203   1.608   3.987  0.0959 -0.4214 -0.6195
 2013SOL    HW1 6355   1.248   1.530   4.020  0.5137  0.4200  0.9005
 2013SOL    HW2 6356   1.270   1.677   3.992 -0.9203  0.5371  0.3023
 2014SOL     OW 6357   0.142   3.483   3.665  0.0349 -0.4117  0.1674
 2014SOL    HW1 6358   0.147   3.396   3.627  1.1310 -0.3818  0.2028
 2014SOL    HW2 6359   0.230   3.519   3.653 -0.5508  0.8978 -0.3435
 2015SOL     OW 6360   0.081   1.886   3.134  0.0283 -1.1271  0.3485
 2015SOL    HW1 6361   0.137   1.886   3.056 -1.0813 -0.2993 -0.4759
 2015SOL    HW2 6362   0.134   1.844   3.202  2.1749  0.8255 -0.0184
 2016SOL     OW 6363   4.187   2.256   2.392 -0.0792  0.5170 -0.5557
 2016SOL    HW1 6364   4.119   2.196   2.361 -1.4702  2.3201 -1.1510
 2016SOL    HW2 6365   4.223   2.294   2.312 -0.0956  1.4137 -0.1380
 2017SOL     OW 6366   5.472   0.044   5.298 -0.4472 -0.0394 -0.7151
 2017SOL    HW1 6367   5.396   0.057   5.356 -0.9620 -2.4624 -0.7454
 2017SOL    HW2 6368   5.543   0.093   5.340 -0.9609 -1.2061  1.6554
 2018SOL     OW 6369   2.586   1.102   3.040  0.5778 -0.0539  0.1859
 2018SOL    HW1 6370   2.592   1.028   2.979 -0.8930  1.4732 -1.9483
 2018SOL    HW2 6371   2.651   1.164   3.009 -0.1126  0.7068  0.2308
 2019SOL     OW 6372   4.964   1.892   1.125  0.0758  0.0718  0.2464
 2019SOL    HW1 6373   4.972   1.828   1.055 -1.2635  1.8236 -1.6334
 2019SOL    HW2 6374   5.033   1.957   1.106  0.7284 -0.2221  1.4982
 2020SOL     OW 6375   3.909   0.485   3.348 -0.0389 -0.0150 -0.5523
 2020SOL    HW1 6376   3.933   0.563   3.297 -0.2653 -0.7819 -1.8556
 2020SOL    HW2 6377   3.960   0.414   3.310 -1.3359 -0.8992 -0.7121
 2021SOL     OW 6378   0.662   1.841   1.783  0.2879  0.0977 -0.1201
 2021SOL    HW1 6379   0.656   1.817   1.876 -0.1140  0.9431  0.0791
 2021SOL    HW2 6380   0.573   1.868   1.760  0.0998 -1.2105 -1.0755
 2022SOL     OW 6381   3.634   1.953   3.085 -0.2099  0.1402  0.0383
 2022SOL    HW1 6382   3.563   1.953   3.150 -1.7740 -0.9717 -1.5598
 2022SOL    HW2 6383   3.596   1.997   3.009  1.8678  2.1820  0.0886
 2023SOL     OW 6384   0.702   0.142   2.453  0.1319  0.3953  0.2525
 2023SOL    HW1 6385   0.695   0.236   2.434  3.0531  0.4799 -0.7585
 2023SOL    HW2 6386   0.638   0.101   2.395 -2.8839  1.7860  2.2933
 2024SOL     OW 6387   1.456   1.146   0.090 -0.2126  0.1289  0.0009
 2024SOL    HW1 6388   1.371   1.173   0.125 -0.1965  0.0628  0.0892
 2024SOL    HW2 6389   1.444   1.150  -0.005  0.5206  2.8486 -0.0544
 2025SOL     OW 6390   3.516   2.994   3.779 -0.0459 -0.2368  0.2934
 2025SOL    HW1 6391   3.474   2.914   3.749 -0.8743  0.4956 -0.5876
 2025SOL    HW2 6392   3.487   3.005   3.869 -0.0668 -0.8320  0.3593
 2026SOL     OW 6393   5.182   0.414   0.173 -0.0744  0.5247  0.2949
 2026SOL    HW1 6394   5.159   0.462   0.253 -0.1290 -0.4107  0.8551
 2026SOL    HW2 6395   5.242   0.473   0.126 -0.5996  1.3809  0.6716
 2027SOL     OW 6396   0.686   0.675   3.362 -0.6421  0.2329 -0.0092
 2027SOL    HW1 6397   0.750   0.746   3.369  0.0485 -0.3109 -0.6477
 2027SOL    HW2 6398   0.733   0.597   3.390 -0.8862 -0.2400 -0.8820
 2028SOL     OW 6399   4.201   3.715   4.462  0.2166 -0.6016 -0.6138
 2028SOL    HW1 6400   4.217   3.803   4.427  0.9502 -0.3750  0.2620
 2028SOL    HW2 6401   4.238   3.656   4.396  0.0884 -0.2427 -1.0121
 2029SOL     OW 6402   3.611   2.695   4.485  0.5492 -0.0783 -0.7479
 2029SOL    HW1 6403   3.701   2.706   4.516  0.3040 -0.9848  0.3618
 2029SOL    HW2 6404   3.590   2.605   4.507 -1.2156  0.6206  0.5627
 2030SOL     OW 6405   5.166   3.284   2.831 -0.1932  0.0423 -0.3350
 2030SOL    HW1 6406   5.118   3.330   2.900  0.2118  0.2887 -0.2187
 2030SOL    HW2 6407   5.154   3.338   2.753 -2.3456 -1.2391 -0.9827
 2031SOL     OW 6408   3.297   2.657   2.217 -0.5333  0.0775  0.2116
 2031SOL    HW1 6409   3.288   2.570   2.178 -0.6994  0.0256  0.3664
 2031SOL    HW2 6410   3.325   2.713   2.145  1.4270 -0.4734  0.4894
 2032SOL     OW 6411   3.862   3.026   1.808 -0.5176  0.4688 -0.0337
 2032SOL    HW1 6412   3.814   3.054   1.730  0.1060  1.0966 -0.2004
 2032SOL    HW2 6413   3.911   3.103   1.836  1.6228 -0.5326 -0.7736
 2033SOL     OW 6414   1.474   3.548   2.525 -0.6474 -0.5737 -0.6782
 2033SOL    HW1 6415   1.399   3.547   2.584 -0.4809 -1.4521 -0.4577
 2033SOL    HW2 6416   1.451   3.486   2.456  0.6015 -2.3335  0.3789
 2034SOL     OW 6417   2.961   0.518   4.855 -0.0123 -0.1642 -0.1870
 2034SOL    HW1 6418   2.937   0.459   4.926  0.5371 -1.7353 -1.2386
 2034SOL    HW2 6419   3.010   0.462   4.793  0.3598  1.3538 -1.3273
 2035SOL     OW 6420   2.328   5.311   0.460 -0.3107 -0.0706 -0.1827
 2035SOL    HW1 6421   2.406   5.355   0.426 -0.5847  0.5766  0.0193
 2035SOL    HW2 6422   2.318   5.233   0.404  0.5188 -0.2019 -0.1608
 2036SOL     OW 6423   2.732   5.176   2.905  0.1880  0.4839  0.0063
 2036SOL    HW1 6424   2.714   5.185   2.811 -1.1156 -0.1127  0.1838
 2036SOL    HW2 6425   2.674   5.239   2.947  1.3971  1.3868  0.3909
 2037SOL     OW 6426   0.237   1.669   5.208  0.3118  0.1549 -0.0644
 2037SOL    HW1 6427   0.307   1.709   5.157  0.6732  1.4456  1.3767
 2037SOL    HW2 6428   0.280   1.598   5.255  0.4036  0.2471 -0.0098
 2038SOL     OW 6429   3.268   0.060   5.265  0.2297  0.0214 -0.0332
 2038SOL    HW1 6430   3.282   0.011   5.184  1.7055  0.0764  0.1750
 2038SOL    HW2 6431   3.221  -0.002   5.322  2.5624 -1.4325  0.4410
 2039SOL     OW 6432   4.220   3.439   2.636  0.6210 -0.5284 -0.3539
 2039SOL    HW1 6433   4.273   3.376   2.685 -0.6718 -2.2509 -1.1161
 2039SOL    HW2 6434   4.164   3.386   2.580 -0.9901  1.2703 -0.5496
 2040SOL     OW 6435   5.035   5.296   0.194  0.5601 -0.2926  0.5082
 2040SOL    HW1 6436   5.092   5.313   0.269  1.1307  1.3812 -0.2661
 2040SOL    HW2 6437   4.957   5.255   0.233  0.4433  1.3652  2.1503
 2041SOL     OW 6438   0.327   4.574   5.491 -0.6888 -0.5272  0.4263
 2041SOL    HW1 6439   0.412   4.580   5.447 -1.6041  0.3736 -1.3297
 2041SOL    HW2 6440   0.310   4.480   5.496  0.9566 -0.8004  2.0253
 2042SOL     OW 6441   3.155   3.038   1.487  0.3638 -0.0755 -0.6348
 2042SOL    HW1 6442   3.082   3.099   1.497 -0.4028 -1.0887  0.1971
 2042SOL    HW2 6443   3.120   2.968   1.432  1.5617  0.7141 -2.4744
 2043SOL     OW 6444   0.168   1.315   1.422 -0.0358  0.1374  0.4587
 2043SOL    HW1 6445   0.089   1.335   1.372 -0.3110 -2.3410 -0.2244
 2043SOL    HW2 6446   0.162   1.370   1.500 -2.1982  0.3274  0.2092
 2044SOL     OW 6447   2.039   0.782   2.588 -0.3001 -0.2309  0.0951
 2044SOL    HW1 6448   2.111   0.719   2.589 -1.0367 -1.1278 -0.8028
 2044SOL    HW2 6449   1.965   0.732   2.554 -1.0822  0.9496  0.0220
 2045SOL     OW 6450   4.528   3.771   3.224 -0.3351  0.5837 -0.3776
 2045SOL    HW1 6451   4.453   3.742   3.173 -0.6668 -1.0688  0.9619
 2045SOL    HW2 6452   4.493   3.789   3.311  0.9031 -1.0453  0.5150
 2046SOL     OW 6453   4.380   0.026   2.365 -0.1572 -0.5033  0.1693
 2046SOL    HW1 6454   4.333   0.009   2.447  0.3313 -0.1047  0.5377
 2046SOL    HW2 6455   4.464  -0.018   2.376  0.1105 -0.0113  0.0943
 2047SOL     OW 6456   0.042   0.738   2.707  0.2442 -0.1840  0.1009
 2047SOL    HW1 6457   0.024   0.686   2.785  0.5629  2.1383  1.8321
 2047SOL    HW2 6458  -0.040   0.784   2.690  0.2055 -0.6091 -0.9210
 2048SOL     OW 6459   1.120   3.530   5.264 -0.1415  0.3023  0.1991
 2048SOL    HW1 6460   1.082   3.447   5.292 -0.1422  0.2784  0.1257
 2048SOL    HW2 6461   1.080   3.595   5.322 -1.5895  0.5087 -0.9840
 2049SOL     OW 6462   5.555   0.938   5.058  0.0929  0.4358  0.5249
 2049SOL    HW1 6463   5.635   0.934   5.006  0.1328 -0.5404  0.6399
 2049SOL    HW2 6464   5.492   0.982   5.001  0.0423 -0.9017 -0.5060
 2050SOL     OW 6465   0.453   5.199   1.574  0.4519  0.3197 -0.5599
 2050SOL    HW1 6466   0.508   5.127   1.540  0.2377  0.1163 -0.4756
 2050SOL    HW2 6467   0.479   5.275   1.522  0.7501  0.2023 -0.5847
 2051SOL     OW 6468   3.892   1.452   4.282  0.2957  0.0610  0.3255
 2051SOL    HW1 6469   3.817   1.484   4.331 -0.5246  0.1955 -0.9564
 2051SOL    HW2 6470   3.928   1.529   4.239 -0.0498 -0.2933 -0.6318
 2052SOL     OW 6471   1.957   5.326   5.557  0.2469 -0.1760 -0.2392
 2052SOL    HW1 6472   1.988   5.254   5.502 -1.3607 -0.1739 -1.2118
 2052SOL    HW2 6473   1.941   5.398   5.495 -1.1048 -0.0010  0.2843
 2053SOL     OW 6474   2.426   1.695   4.611 -0.2093 -0.4397  0.2816
 2053SOL    HW1 6475   2.347   1.656   4.572 -0.0144  0.3633 -0.9998
 2053SOL    HW2 6476   2.487   1.702   4.537  0.1904  1.1443  0.7378
 2054SOL     OW 6477   3.557   4.253   3.497  0.2156  0.2685  0.0675
 2054SOL    HW1 6478   3.604   4.242   3.580 -1.6558  1.2126  1.3169
 2054SOL    HW2 6479   3.547   4.164   3.463  1.3926 -0.0894  0.5974
 2055SOL     OW 6480   0.031   0.559   1.584 -0.3395 -0.4176  0.2216
 2055SOL    HW1 6481   0.033   0.476   1.536 -0.0183 -0.0835 -0.3546
 2055SOL    HW2 6482   0.118   0.597   1.570 -0.0117 -0.6017  1.5979
 2056SOL     OW 6483   1.009   4.277   3.020  0.1953 -0.0539  0.9506
 2056SOL    HW1 6484   0.937   4.328   3.055 -0.3172  0.5311 -0.8380
 2056SOL    HW2 6485   1.085   4.303   3.073 -0.3270  1.5538  0.9665
 2057SOL     OW 6486   3.879   0.716   3.180  0.3704 -0.8186  0.3068
 2057SOL    HW1 6487   3.814   0.675   3.122 -1.4183 -0.5299  1.9824
 2057SOL    HW2 6488   3.895   0.802   3.141 -1.1435 -0.4544  0.4161
 2058SOL     OW 6489   0.392   1.521   4.253 -0.5525  0.4233  0.1979
 2058SOL    HW1 6490   0.462   1.578   4.284  0.3701 -1.1048  1.0292
 2058SOL    HW2 6491   0.411   1.436   4.292 -0.1254 -1.2941 -3.3566
 2059SOL     OW 6492   4.271   0.613   2.258  0.5934 -0.6596 -0.6451
 2059SOL    HW1 6493   4.192   0.572   2.223 -0.3721  0.4795  0.1034
 2059SOL    HW2 6494   4.314   0.652   2.182 -0.0524 -0.5293 -0.9505
 2060SOL     OW 6495   3.261   2.564   4.323 -0.1141 -0.4840  0.1423
 2060SOL    HW1 6496   3.277   2.617   4.401  0.6648  0.6399 -0.7385
 2060SOL    HW2 6497   3.167   2.575   4.305 -0.0037  0.4972  0.0742
 2061SOL     OW 6498   3.872   4.189   3.315 -0.6231  0.2933 -0.5371
 2061SOL    HW1 6499   3.810   4.163   3.247 -0.2506 -0.4052 -0.6122
 2061SOL    HW2 6500   3.956   4.154   3.286 -0.2632  0.8983 -0.2403
 2062SOL     OW 6501   2.756   4.132   4.699  0.0283 -0.0075  0.2173
 2062SOL    HW1 6502   2.851   4.135   4.713 -0.1871 -0.7287  2.2138
 2062SOL    HW2 6503   2.721   4.196   4.761 -0.8673 -0.9442  0.7123
 2063SOL     OW 6504   4.331   5.139   4.695 -0.3571 -0.0818 -0.5013
 2063SOL    HW1 6505   4.396   5.203   4.663  0.6201 -0.9962 -0.4046
 2063SOL    HW2 6506   4.317   5.081   4.620  1.0074 -1.5007  0.3061
 2064SOL     OW 6507   1.058   3.763   0.773  0.9436 -0.3072  0.1440
 2064SOL    HW1 6508   1.005   3.768   0.853 -0.5595 -0.3342 -0.8069
 2064SOL    HW2 6509   1.004   3.805   0.706  2.0802 -0.4737 -0.9111
 2065SOL     OW 6510   2.414   4.613   4.091  0.3209 -0.1625 -0.2711
 2065SOL    HW1 6511   2.330   4.652   4.066 -0.3008 -0.0822  1.7731
 2065SOL    HW2 6512   2.392   4.522   4.112  0.9603 -0.4328 -0.7486
 2066SOL     OW 6513   2.551   5.356   3.368  0.0859 -0.1994 -0.1872
 2066SOL    HW1 6514   2.604   5.433   3.386 -0.0955 -0.1745  0.2432
 2066SOL    HW2 6515   2.599   5.283   3.406  0.2054 -0.2885 -0.5025
 2067SOL     OW 6516   3.340   0.937   1.818 -0.2999 -0.2997 -0.0108
 2067SOL    HW1 6517   3.309   0.974   1.901 -0.4909  0.4419 -0.4046
 2067SOL    HW2 6518   3.386   0.857   1.843  3.0775  1.8191  1.2859
 2068SOL     OW 6519   2.424   1.429   2.451 -0.0902 -0.0711  0.2539
 2068SOL    HW1 6520   2.503   1.482   2.444  0.8001 -1.1053  1.9867
 2068SOL    HW2 6521   2.405   1.402   2.362  3.2046 -2.1937  0.0648
 2069SOL     OW 6522   2.168   4.101   3.753 -0.1738  0.5651 -0.6787
 2069SOL    HW1 6523   2.225   4.178   3.752  0.0780  0.4300  0.9898
 2069SOL    HW2 6524   2.086   4.131   3.791 -0.8990  0.5151 -2.1325
 2070SOL     OW 6525   4.193   4.794   2.088  0.0792  0.1209  0.2289
 2070SOL    HW1 6526   4.174   4.817   2.179  1.2891  0.4616  0.4120
 2070SOL    HW2 6527   4.124   4.837   2.038  0.1282  0.9999  0.8903
 2071SOL     OW 6528   0.155   3.172   0.634 -0.0178  0.7920  0.3761
 2071SOL    HW1 6529   0.096   3.173   0.559  0.5614 -1.7932 -0.1981
 2071SOL    HW2 6530   0.125   3.245   0.689 -3.6273 -0.2703  0.0318
 2072SOL     OW 6531   0.962   1.769   2.844 -0.3960  0.0115 -0.0461
 2072SOL    HW1 6532   1.046   1.756   2.800 -0.0050  0.2050  0.6342
 2072SOL    HW2 6533   0.898   1.731   2.784  0.3181 -1.4051  0.0427
 2073SOL     OW 6534   2.903   1.462   2.357  0.0840  0.1265 -0.1875
 2073SOL    HW1 6535   2.812   1.493   2.361  0.0175 -0.1764  1.1873
 2073SOL    HW2 6536   2.936   1.496   2.274 -1.9471 -1.6846 -1.8411
 2074SOL     OW 6537   1.696   2.169   4.518 -0.4013  0.2823 -0.5385
 2074SOL    HW1 6538   1.688   2.083   4.478 -0.4023  0.1269 -0.2042
 2074SOL    HW2 6539   1.787   2.194   4.503 -0.3342  0.1142 -0.4099
 2075SOL     OW 6540   0.007   2.203   3.767  0.1946 -0.4393  0.2116
 2075SOL    HW1 6541  -0.042   2.269   3.718 -0.6287 -0.3854  1.0868
 2075SOL    HW2 6542   0.098   2.217   3.741 -0.0784  0.4383 -0.3121
 2076SOL     OW 6543   5.103   2.022   0.713  0.0244 -0.2248  0.3861
 2076SOL    HW1 6544   5.087   2.108   0.753  0.7003 -0.0794  0.3672
 2076SOL    HW2 6545   5.040   1.963   0.755 -0.5922  0.3218  0.2448
 2077SOL     OW 6546   5.275   0.622   0.361 -0.0512 -0.2394  0.0974
 2077SOL    HW1 6547   5.316   0.700   0.325 -2.0856  0.6820 -0.3435
 2077SOL    HW2 6548   5.207   0.655   0.420  1.3304 -1.7161  2.6885
 2078SOL     OW 6549   2.476   3.924   0.574 -0.0299 -0.3516 -0.1224
 2078SOL    HW1 6550   2.429   4.007   0.582  0.4961  0.1817 -2.0992
 2078SOL    HW2 6551   2.516   3.911   0.660  0.2994  1.7229  0.0857
 2079SOL     OW 6552   2.042   2.265   4.002 -0.4299  0.3429 -0.1677
 2079SOL    HW1 6553   2.003   2.225   4.080 -0.2210 -0.3083 -0.3875
 2079SOL    HW2 6554   2.131   2.287   4.027  0.4381 -2.0477 -0.8844
 2080SOL     OW 6555   4.427   1.742   0.683 -0.5210 -0.2362  0.0553
 2080SOL    HW1 6556   4.454   1.681   0.752  1.5015 -0.4710 -0.8507
 2080SOL    HW2 6557   4.472   1.710   0.604 -2.7006  0.0402 -1.4065
 2081SOL     OW 6558   0.470   2.302   3.358  0.3360 -0.5931  0.0908
 2081SOL    HW1 6559   0.491   2.246   3.433  0.3680 -1.3773 -0.4838
 2081SOL    HW2 6560   0.454   2.240   3.286  1.3322  0.1569 -0.8112
 2082SOL     OW 6561   0.666   2.730   3.917  0.2460  0.1421 -0.3483
 2082SOL    HW1 6562   0.673   2.804   3.856  0.9542  1.1453  0.9117
 2082SOL    HW2 6563   0.604   2.671   3.874  0.6942  0.8165 -2.0249
 2083SOL     OW 6564   2.153   4.842   3.088 -0.2708  0.9530 -0.3527
 2083SOL    HW1 6565   2.115   4.894   3.159 -0.3450 -0.1066  0.4066
 2083SOL    HW2 6566   2.078   4.821   3.032 -0.6706 -0.2622  0.5876
 2084SOL     OW 6567   1.440   3.457   0.163 -0.0967 -0.4318 -0.0228
 2084SOL    HW1 6568   1.475   3.545   0.155 -0.4840 -0.4419 -2.4825
 2084SOL    HW2 6569   1.513   3.400   0.138  0.2025 -0.8736  1.6964
 2085SOL     OW 6570   0.112   4.247   0.973 -0.7923  0.3869 -0.6311
 2085SOL    HW1 6571   0.025   4.213   0.953 -0.3224 -1.2574 -0.0958
 2085SOL    HW2 6572   0.171   4.194   0.919  0.0535 -0.3824  0.9861
 2086SOL     OW 6573   3.303   4.606   0.252 -0.2279  0.0681 -0.3265
 2086SOL    HW1 6574   3.286   4.685   0.303  0.4832  1.0056 -1.4685
 2086SOL    HW2 6575   3.365   4.556   0.304  0.0658  0.7330 -0.0246
 2087SOL     OW 6576   0.937   3.351   0.981 -0.0898 -0.6590  0.0632
 2087SOL    HW1 6577   0.934   3.336   0.887  1.1075  2.9507 -0.7147
 2087SOL    HW2 6578   0.866   3.413   0.998 -0.2573 -1.2021  1.5621
 2088SOL     OW 6579   1.388   4.565   1.519 -0.1764  0.5046  0.2730
 2088SOL    HW1 6580   1.358   4.656   1.528  0.3143  0.7020  0.0005
 2088SOL    HW2 6581   1.465   4.560   1.576 -0.0678  0.3266  0.1106
 2089SOL     OW 6582   1.430   4.381   0.889 -0.2356 -0.0388  0.0991
 2089SOL    HW1 6583   1.462   4.331   0.964 -0.5307 -0.4248 -0.0322
 2089SOL    HW2 6584   1.352   4.334   0.859 -0.3490  0.3326 -0.2073
 2090SOL     OW 6585   2.811   1.395   1.865  0.0093  0.2189  0.0913
 2090SOL    HW1 6586   2.758   1.416   1.942 -1.7186 -1.4481 -0.5633
 2090SOL    HW2 6587   2.796   1.467   1.804 -0.0283  0.6722  0.6396
 2091SOL     OW 6588   4.165   0.697   3.228  0.2149 -0.1103 -0.4196
 2091SOL    HW1 6589   4.207   0.782   3.243 -0.6894  0.1719  0.6787
 2091SOL    HW2 6590   4.071   0.717   3.228  0.0115 -1.0380 -0.6815
 2092SOL     OW 6591   4.748   4.709   0.380 -0.0029 -0.3501 -0.0888
 2092SOL    HW1 6592   4.840   4.684   0.386 -0.0353 -0.4886 -0.1759
 2092SOL    HW2 6593   4.719   4.715   0.471  0.8748  2.5942  0.1116
 2093SOL     OW 6594   2.002   4.324   4.442 -0.5772  0.4636  0.1320
 2093SOL    HW1 6595   1.908   4.340   4.440 -0.8112 -0.7780 -1.7617
 2093SOL    HW2 6596   2.012   4.248   4.499 -0.5829  1.1715  1.1032
 2094SOL     OW 6597   4.374   0.888   3.878 -0.4999 -0.7176 -0.1491
 2094SOL    HW1 6598   4.365   0.937   3.960 -0.8786 -0.2284 -0.4762
 2094SOL    HW2 6599   4.299   0.915   3.826  1.3943  1.4877 -1.9301
 2095SOL     OW 6600   3.991   3.030   0.406 -0.5622 -0.5951  0.1603
 2095SOL    HW1 6601   4.033   2.980   0.335 -1.3728 -1.4042  0.2408
 2095SOL    HW2 6602   3.900   3.003   0.404 -1.2154  1.4274 -0.2607
 2096SOL     OW 6603   4.675   1.644   1.088  0.1282  0.3655 -0.1671
 2096SOL    HW1 6604   4.754   1.616   1.041  1.3276  0.4591  1.6963
 2096SOL    HW2 6605   4.707   1.670   1.175 -1.9299  0.6610  0.5448
 2097SOL     OW 6606   2.374   0.902   1.396 -0.0879  0.1773  0.1298
 2097SOL    HW1 6607   2.390   0.862   1.482  0.3970  0.4548  0.1711
 2097SOL    HW2 6608   2.461   0.923   1.363 -0.3010  0.5202 -0.2168
 2098SOL     OW 6609   4.305   2.348   1.865  0.1635 -0.1833  0.2944
 2098SOL    HW1 6610   4.357   2.328   1.787 -0.8254 -0.6278 -0.2588
 2098SOL    HW2 6611   4.293   2.264   1.908  1.3820  0.1594  1.3911
 2099SOL     OW 6612   3.586   1.296   4.955  0.4409 -0.8625 -0.4060
 2099SOL    HW1 6613   3.640   1.221   4.980  0.6388 -0.7003 -0.3371
 2099SOL    HW2 6614   3.633   1.336   4.882 -0.5518 -1.7999 -1.5878
 2100SOL     OW 6615   4.850   2.055   0.904 -0.0648 -0.2150 -0.1074
 2100SOL    HW1 6616   4.787   2.059   0.976 -1.9437  0.6477 -1.7077
 2100SOL    HW2 6617   4.905   2.132   0.917 -0.8397  0.3255  0.0347
 2101SOL     OW 6618   2.612   3.007   4.139 -0.3015  0.1907  0.6166
 2101SOL    HW1 6619   2.584   2.989   4.229 -1.6159  0.0547  0.2134
 2101SOL    HW2 6620   2.637   3.099   4.139 -1.3817  0.4976  0.8822
 2102SOL     OW 6621   4.777   5.363   3.880  0.4818 -0.0819  0.1911
 2102SOL    HW1 6622   4.705   5.309   3.848 -0.0146  1.2895 -1.1320
 2102SOL    HW2 6623   4.740   5.451   3.888  1.6010  0.3489  1.0243
 2103SOL     OW 6624   0.163   4.937   2.844  0.6239  0.0872  0.2271
 2103SOL    HW1 6625   0.128   4.871   2.784  0.3106 -0.2879  0.8103
 2103SOL    HW2 6626   0.131   4.910   2.930  1.0159  0.6525  0.5553
 2104SOL     OW 6627   1.712   0.235   1.118  0.0379 -0.2438 -0.5516
 2104SOL    HW1 6628   1.756   0.150   1.129 -2.1621 -1.4039 -0.2149
 2104SOL    HW2 6629   1.738   0.263   1.030  1.9353 -0.5381 -0.1360
 2105SOL     OW 6630   4.535   0.682   2.043 -0.3065  0.7524 -0.2961
 2105SOL    HW1 6631   4.479   0.691   1.965  0.5156  1.1524 -0.8569
 2105SOL    HW2 6632   4.570   0.770   2.057 -0.4504  0.6826  0.5379
 2106SOL     OW 6633   3.099   3.801   2.116  0.5564  0.2759 -0.1925
 2106SOL    HW1 6634   3.169   3.859   2.145  2.0102 -0.4414 -2.0608
 2106SOL    HW2 6635   3.092   3.818   2.021 -0.1516 -1.3650 -0.4621
 2107SOL     OW 6636   0.311   1.602   3.462  0.1179 -0.4692 -0.4814
 2107SOL    HW1 6637   0.314   1.586   3.556  0.2522 -1.1667 -0.5980
 2107SOL    HW2 6638   0.394   1.566   3.430 -0.0965 -0.5775 -0.9151
 2108SOL     OW 6639   5.067   1.257   4.886  0.3057 -0.4920  0.0809
 2108SOL    HW1 6640   5.154   1.225   4.860  1.7073  1.7178  1.6171
 2108SOL    HW2 6641   5.053   1.334   4.832 -0.2823 -0.3395  0.4470
 2109SOL     OW 6642   1.570   2.016   0.542  0.1981 -0.3427  0.7682
 2109SOL    HW1 6643   1.516   2.089   0.571  1.8536  0.9982  0.5897
 2109SOL    HW2 6644   1.510   1.960   0.493 -1.2635  0.5100  1.5205
 2110SOL     OW 6645   5.390   2.253   5.105  0.3268 -0.7015  0.0082
 2110SOL    HW1 6646   5.409   2.303   5.026  0.2153  0.4576  0.6892
 2110SOL    HW2 6647   5.443   2.295   5.173  0.7431 -1.9389  0.4723
 2111SOL     OW 6648   5.101   3.783   0.747 -0.0893  0.1942 -0.2150
 2111SOL    HW1 6649   5.065   3.710   0.696  0.1208 -0.6476  0.8059
 2111SOL    HW2 6650   5.093   3.755   0.838  2.0451  0.4883  0.1093
 2112SOL     OW 6651   2.471   1.466   4.768  0.0977 -0.5300 -0.4457
 2112SOL    HW1 6652   2.457   1.551   4.725 -0.3977  0.3979  1.4573
 2112SOL    HW2 6653   2.564   1.447   4.754  1.0942  1.9985  1.8732
 2113SOL     OW 6654   2.798   1.404   3.963 -0.1150 -0.2165  0.9975
 2113SOL    HW1 6655   2.725   1.421   3.903  0.5603  2.4044  0.8176
 2113SOL    HW2 6656   2.868   1.370   3.907 -0.3508 -0.3089  0.7543
 2114SOL     OW 6657   2.946   1.467   5.294 -0.0560 -0.0212  0.1958
 2114SOL    HW1 6658   2.991   1.551   5.282  2.0752 -0.8862  1.4431
 2114SOL    HW2 6659   3.012   1.402   5.270 -1.6376 -1.3717 -0.6554
 2115SOL     OW 6660   2.315   2.732   3.154 -0.2129 -0.4870 -0.1812
 2115SOL    HW1 6661   2.322   2.638   3.165  2.0420 -0.1690  1.7559
 2115SOL    HW2 6662   2.221   2.748   3.145 -0.6748 -2.8539 -0.0836
 2116SOL     OW 6663   2.818   4.468   2.212 -0.4524  0.3155 -0.6166
 2116SOL    HW1 6664   2.812   4.381   2.172  0.1457  0.9413 -2.1654
 2116SOL    HW2 6665   2.727   4.493   2.227 -0.7180  0.1019 -1.7520
 2117SOL     OW 6666   4.425   4.561   2.276  0.1733  0.3923  0.4843
 2117SOL    HW1 6667   4.363   4.559   2.203  0.6093 -0.1901  0.1201
 2117SOL    HW2 6668   4.393   4.631   2.333 -1.7868 -0.9357  1.1388
 2118SOL     OW 6669   4.676   0.021   2.101 -0.6827  0.3510 -1.1557
 2118SOL    HW1 6670   4.744   0.050   2.162 -1.3284  0.4758 -0.4760
 2118SOL    HW2 6671   4.705  -0.065   2.072 -0.3253  0.3183 -0.7211
 2119SOL     OW 6672   3.389   0.412   3.056 -0.1623 -0.1942  0.0176
 2119SOL    HW1 6673   3.386   0.423   3.151 -0.8517  1.3629 -0.1414
 2119SOL    HW2 6674   3.346   0.328   3.040 -0.4712 -0.2493  1.0595
 2120SOL     OW 6675   1.420   0.473   1.938 -0.1989 -0.2868  0.1548
 2120SOL    HW1 6676   1.349   0.444   1.882  0.2289 -0.8200 -0.1136
 2120SOL    HW2 6677   1.499   0.454   1.889  0.1276  0.5988  0.3099
 2121SOL     OW 6678   0.790   4.005   3.696  0.3775 -0.2564 -0.3592
 2121SOL    HW1 6679   0.764   3.947   3.768 -0.9687 -1.8338 -2.0107
 2121SOL    HW2 6680   0.708   4.046   3.668  0.5886 -0.8737 -1.9736
 2122SOL     OW 6681   0.976   1.848   0.006 -0.3282 -0.1058 -0.1390
 2122SOL    HW1 6682   0.883   1.847  -0.015 -0.3523 -2.1931 -0.1035
 2122SOL    HW2 6683   0.986   1.919   0.070 -2.0552 -0.4491  0.5459
 2123SOL     OW 6684   4.717   4.781   1.100 -0.7140 -0.3841  0.6057
 2123SOL    HW1 6685   4.745   4.699   1.061  0.5669 -0.5961  1.8814
 2123SOL    HW2 6686   4.633   4.761   1.141 -1.3843 -0.5115 -0.7629
 2124SOL     OW 6687   4.936   3.433   2.064  0.2254  0.1341 -0.4749
 2124SOL    HW1 6688   4.980   3.508   2.022 -0.4553  1.0664  0.4374
 2124SOL    HW2 6689   4.879   3.398   1.995  0.3469  0.6177 -0.8301
 2125SOL     OW 6690   0.642   4.624   2.003 -0.2891 -0.3793 -0.4330
 2125SOL    HW1 6691   0.672   4.667   1.923 -0.7131 -2.8758 -2.0217
 2125SOL    HW2 6692   0.694   4.543   2.008 -0.4547 -0.4114  1.7026
 2126SOL     OW 6693   2.262   0.450   2.799  0.3366 -0.1801  0.2389
 2126SOL    HW1 6694   2.206   0.405   2.862  0.4606 -1.5561 -0.5902
 2126SOL    HW2 6695   2.350   0.420   2.820  0.4323 -0.2608 -0.2669
 2127SOL     OW 6696   4.976   1.281   5.146 -0.3104 -0.2235 -0.3436
 2127SOL    HW1 6697   4.883   1.286   5.124 -0.4667  0.8103  0.4858
 2127SOL    HW2 6698   5.021   1.301   5.063 -0.8165 -0.6064 -0.7178
 2128SOL     OW 6699   5.284   4.808   5.308  0.4260 -0.1451  0.3138
 2128SOL    HW1 6700   5.272   4.901   5.289  0.1411  0.2071  2.0894
 2128SOL    HW2 6701   5.322   4.805   5.395  1.7598 -1.6799 -0.2672
 2129SOL     OW 6702   2.123   5.040   2.584  0.7333 -0.3842 -0.0315
 2129SOL    HW1 6703   2.134   5.067   2.675  0.4563 -0.2708 -0.0293
 2129SOL    HW2 6704   2.074   4.958   2.589 -2.0163  1.1188 -0.1568
 2130SOL     OW 6705   2.688   5.479   1.337 -0.0825 -0.1560  0.3434
 2130SOL    HW1 6706   2.672   5.427   1.415  0.6197  0.7123  1.0846
 2130SOL    HW2 6707   2.730   5.418   1.276  1.0227 -0.3819  1.3113
 2131SOL     OW 6708   3.683   4.805   1.469  0.6056 -0.4717 -0.3872
 2131SOL    HW1 6709   3.633   4.883   1.443 -0.2367 -0.5647  0.8672
 2131SOL    HW2 6710   3.737   4.834   1.543  1.4496 -0.7012 -0.9037
 2132SOL     OW 6711   0.304   4.463   1.744 -0.1974 -0.1841  0.6821
 2132SOL    HW1 6712   0.264   4.486   1.660  2.5327  0.9054 -0.4582
 2132SOL    HW2 6713   0.285   4.538   1.801  0.6540  0.6190 -0.0459
 2133SOL     OW 6714   2.609   3.630   5.184  0.0908  0.4288  0.6179
 2133SOL    HW1 6715   2.529   3.615   5.134  1.0932  1.6776 -1.5129
 2133SOL    HW2 6716   2.678   3.592   5.130  1.2421  1.9393  0.9823
 2134SOL     OW 6717   1.889   4.591   1.745  0.0353  0.0119  0.4318
 2134SOL    HW1 6718   1.869   4.537   1.670  1.0888  0.0702  0.0921
 2134SOL    HW2 6719   1.971   4.555   1.779 -1.1506 -0.9635  2.4612
 2135SOL     OW 6720   2.506   1.123   4.473  0.5234 -0.3875  0.3078
 2135SOL    HW1 6721   2.439   1.167   4.525  0.5723  1.9046 -1.3889
 2135SOL    HW2 6722   2.583   1.179   4.483  0.8703 -0.5527 -1.2288
 2136SOL     OW 6723   2.348   3.189   3.669  0.4411 -0.3342 -0.0775
 2136SOL    HW1 6724   2.425   3.229   3.628 -0.0954  0.8177 -0.0144
 2136SOL    HW2 6725   2.379   3.155   3.752  0.4635  2.2496  1.0626
 2137SOL     OW 6726   3.353   0.216   4.791  0.0308  0.3125 -0.1422
 2137SOL    HW1 6727   3.260   0.212   4.815  0.4651 -1.1104  1.5276
 2137SOL    HW2 6728   3.399   0.231   4.874  1.2901  1.7139 -1.0264
 2138SOL     OW 6729   3.672   1.726   2.372 -0.3014  0.1544 -0.0532
 2138SOL    HW1 6730   3.727   1.712   2.295  0.6878  0.1272  0.6233
 2138SOL    HW2 6731   3.735   1.737   2.444 -1.1852 -1.0635  0.9608
 2139SOL     OW 6732   2.855   2.260   4.317 -0.0769  0.2027  0.0312
 2139SOL    HW1 6733   2.775   2.222   4.352  0.2279 -0.1870  0.3124
 2139SOL    HW2 6734   2.914   2.186   4.306  0.5808  0.5995  0.7375
 2140SOL     OW 6735   2.528   5.088   2.524  0.1753 -0.0137  0.7508
 2140SOL    HW1 6736   2.571   5.103   2.440 -0.9229  0.2317  0.2192
 2140SOL    HW2 6737   2.585   5.131   2.588  0.2898  1.0315 -0.0303
 2141SOL     OW 6738   5.242   5.340   1.526  0.0267 -0.0059 -0.2787
 2141SOL    HW1 6739   5.242   5.435   1.542 -1.6028 -0.0394  0.0566
 2141SOL    HW2 6740   5.170   5.326   1.465  1.0080 -0.9002 -1.2590
 2142SOL     OW 6741   3.439   1.326   3.613  0.3499  0.4118  0.5463
 2142SOL    HW1 6742   3.470   1.247   3.658 -0.0913  0.7101  1.3964
 2142SOL    HW2 6743   3.344   1.315   3.609  0.3735  0.4186 -0.2900
 2143SOL     OW 6744   0.836   1.239   0.532 -1.0681  0.2862 -0.2640
 2143SOL    HW1 6745   0.814   1.256   0.624 -0.4528  0.9718 -0.2358
 2143SOL    HW2 6746   0.860   1.325   0.497  1.1075 -0.3169 -0.4132
 2144SOL     OW 6747   4.551   4.228   3.838  0.6403 -0.4350  0.7940
 2144SOL    HW1 6748   4.558   4.168   3.763  0.7198  0.6622 -0.1165
 2144SOL    HW2 6749   4.619   4.200   3.898  0.7263 -1.2040  0.3539
 2145SOL     OW 6750   4.947   4.389   4.740 -0.6315 -0.1188  0.1042
 2145SOL    HW1 6751   4.962   4.480   4.713  1.3604 -0.9614 -1.8934
 2145SOL    HW2 6752   5.010   4.374   4.811  1.4016 -0.8143 -1.7533
 2146SOL     OW 6753   0.007   3.906   0.803  0.5044  0.3607 -0.0677
 2146SOL    HW1 6754  -0.043   3.986   0.823  0.5267  0.5219 -0.6306
 2146SOL    HW2 6755   0.001   3.898   0.707 -0.2981 -0.8443  0.0699
 2147SOL     OW 6756   2.845   2.632   2.691  0.4021  0.0480 -0.0247
 2147SOL    HW1 6757   2.841   2.726   2.675  0.5252  0.3414  1.5281
 2147SOL    HW2 6758   2.939   2.613   2.696  0.4315 -0.4695 -1.8850
 2148SOL     OW 6759   0.909   1.739   1.626 -0.7034  0.6044 -0.1090
 2148SOL    HW1 6760   0.923   1.675   1.696  3.8160  1.6559  0.2470
 2148SOL    HW2 6761   0.858   1.809   1.667 -0.8409 -0.1984  1.1418
 2149SOL     OW 6762   2.066   1.844   4.809 -0.2241 -0.0733 -0.1695
 2149SOL    HW1 6763   2.133   1.859   4.875  0.2895  0.5771 -0.8342
 2149SOL    HW2 6764   2.095   1.893   4.732 -0.2580 -1.6844 -1.2627
 2150SOL     OW 6765   4.498   1.632   4.171  0.1321 -0.4753  0.1066
 2150SOL    HW1 6766   4.411   1.660   4.144 -0.1166 -0.2086  1.1098
 2150SOL    HW2 6767   4.492   1.537   4.181  0.3681 -0.6381 -1.2121
 2151SOL     OW 6768   4.490   3.961   0.491  0.0139 -0.1630  0.2428
 2151SOL    HW1 6769   4.574   3.914   0.488  0.1114 -0.1222  1.5291
 2151SOL    HW2 6770   4.509   4.046   0.453  0.5907 -0.1139  0.6270
 2152SOL     OW 6771   0.091   2.583   4.346 -0.2728 -0.0624  0.2394
 2152SOL    HW1 6772   0.100   2.678   4.349  0.0783 -0.1072  0.7147
 2152SOL    HW2 6773   0.037   2.561   4.421 -2.0559 -0.0691 -0.9923
 2153SOL     OW 6774   3.777   3.725   1.919 -0.1781  0.5311 -0.2815
 2153SOL    HW1 6775   3.697   3.758   1.961  0.1011  0.2121  0.5163
 2153SOL    HW2 6776   3.810   3.799   1.870 -0.8549  0.7311 -0.4503
 2154SOL     OW 6777   0.304   1.860   0.285 -0.1814 -0.7652  0.2130
 2154SOL    HW1 6778   0.275   1.949   0.305  0.0236 -1.0571  2.0030
 2154SOL    HW2 6779   0.230   1.820   0.239 -0.3944  0.2310 -0.3271
 2155SOL     OW 6780   0.789   4.488   1.503  0.4137 -0.5112 -0.7613
 2155SOL    HW1 6781   0.870   4.535   1.524 -1.0466  1.3786  1.1589
 2155SOL    HW2 6782   0.753   4.463   1.588 -1.8825  0.3122 -1.4053
 2156SOL     OW 6783   4.892   4.334   0.869  0.3032  0.5791  0.7242
 2156SOL    HW1 6784   4.855   4.252   0.903 -0.8497  0.8680  0.2102
 2156SOL    HW2 6785   4.983   4.312   0.847  0.0423 -0.5247  0.7064
 2157SOL     OW 6786   3.366   3.550   3.623 -0.6784  0.1205 -0.4544
 2157SOL    HW1 6787   3.330   3.481   3.678 -0.2463  1.9596  2.3798
 2157SOL    HW2 6788   3.300   3.619   3.624 -0.5040  0.3464 -2.0440
 2158SOL     OW 6789   0.366   2.826   4.932 -0.2906 -0.0608 -0.2996
 2158SOL    HW1 6790   0.304   2.788   4.994 -0.3006 -0.9311 -0.8231
 2158SOL    HW2 6791   0.444   2.846   4.985  0.4875 -2.7075 -0.3341
 2159SOL     OW 6792   1.759   0.163   4.197  0.3138  0.0699 -0.2458
 2159SOL    HW1 6793   1.821   0.101   4.160  1.0063  0.8751 -0.4819
 2159SOL    HW2 6794   1.794   0.183   4.284 -0.5653 -0.7769  0.3239
 2160SOL     OW 6795   3.304   3.360   3.808  0.4802  0.5287  0.3776
 2160SOL    HW1 6796   3.233   3.297   3.802  0.1957  0.8041  0.7792
 2160SOL    HW2 6797   3.268   3.433   3.859  0.6024  1.2953 -0.6041
 2161SOL     OW 6798   0.840   2.644   4.734  0.0423 -0.5628  0.6474
 2161SOL    HW1 6799   0.872   2.575   4.676  0.1403 -0.2143  0.2819
 2161SOL    HW2 6800   0.867   2.617   4.821 -1.6657 -2.0173  0.7809
 2162SOL     OW 6801   0.532   2.760   1.511  0.3583  0.5678  0.5745
 2162SOL    HW1 6802   0.491   2.695   1.569  0.6082 -0.6697 -0.5923
 2162SOL    HW2 6803   0.484   2.753   1.429  1.5670  0.5316 -0.1641
 2163SOL     OW 6804   0.177   2.638   0.871  0.9045  0.6188  0.1322
 2163SOL    HW1 6805   0.155   2.577   0.941 -0.2178  0.9904  0.1345
 2163SOL    HW2 6806   0.191   2.721   0.916 -0.3366  0.9796 -0.1012
 2164SOL     OW 6807   1.831   3.159   4.430 -0.0154 -0.1447 -0.0639
 2164SOL    HW1 6808   1.770   3.088   4.447 -0.6914  0.0665 -1.4704
 2164SOL    HW2 6809   1.776   3.233   4.406  0.7513  0.3121 -0.4870
 2165SOL     OW 6810   5.287   0.889   4.839 -0.3013 -0.1301  0.1391
 2165SOL    HW1 6811   5.266   0.982   4.843 -1.3193 -0.3239 -0.2216
 2165SOL    HW2 6812   5.256   0.854   4.923 -3.0058 -0.6890 -0.9895
 2166SOL     OW 6813   3.666   1.968   4.826 -0.3131  0.3702 -0.3064
 2166SOL    HW1 6814   3.607   2.000   4.758  1.6507  2.2131 -1.2287
 2166SOL    HW2 6815   3.720   1.902   4.782 -0.7431 -0.3086  0.1666
 2167SOL     OW 6816   2.977   2.031   3.589  0.5169  0.2442  0.0597
 2167SOL    HW1 6817   3.069   2.029   3.613  0.7375 -0.4828 -0.7897
 2167SOL    HW2 6818   2.936   2.089   3.653  1.0379 -1.6712  2.2581
 2168SOL     OW 6819   0.887   4.051   4.067 -0.4543  0.0681  0.1839
 2168SOL    HW1 6820   0.915   4.134   4.106 -0.8736 -0.3949  1.5179
 2168SOL    HW2 6821   0.795   4.065   4.044 -0.7102 -0.2269  1.0078
 2169SOL     OW 6822   1.560   2.251   0.863 -0.0862  0.0575 -0.0635
 2169SOL    HW1 6823   1.555   2.169   0.813 -3.6644  0.8256 -1.2515
 2169SOL    HW2 6824   1.580   2.223   0.952  1.4375 -1.8271 -0.9242
 2170SOL     OW 6825   0.061   0.245   3.573 -0.1323  0.2723 -0.2217
 2170SOL    HW1 6826  -0.015   0.241   3.515 -0.4264  0.6477  0.1270
 2170SOL    HW2 6827   0.135   0.221   3.518 -0.3108  1.2585 -0.9225
 2171SOL     OW 6828   3.912   1.201   4.640 -0.2910  0.1575 -0.9461
 2171SOL    HW1 6829   3.936   1.282   4.685  0.8486 -0.9423  0.5158
 2171SOL    HW2 6830   3.895   1.139   4.710  0.4499 -1.3221 -2.0364
 2172SOL     OW 6831   4.272   2.008   2.196 -0.5946  0.9001  0.2705
 2172SOL    HW1 6832   4.347   2.017   2.255 -0.2833  0.7414 -0.0885
 2172SOL    HW2 6833   4.281   1.919   2.161 -0.6991  1.0348 -0.1065
 2173SOL     OW 6834   2.663   1.391   4.188  0.5071 -0.2039  0.3795
 2173SOL    HW1 6835   2.624   1.304   4.178 -0.2375 -0.0443  1.6777
 2173SOL    HW2 6836   2.709   1.406   4.106  0.0252 -1.5149 -0.1579
 2174SOL     OW 6837   0.555   5.167   2.353 -0.5907 -0.4301 -0.8873
 2174SOL    HW1 6838   0.616   5.226   2.309 -1.2127  1.7428  0.9648
 2174SOL    HW2 6839   0.595   5.081   2.345  1.2939  0.4964 -2.1498
 2175SOL     OW 6840   2.381   1.872   0.371  0.0537  0.0474 -0.6209
 2175SOL    HW1 6841   2.434   1.808   0.418  1.0052 -0.2614 -2.0408
 2175SOL    HW2 6842   2.333   1.918   0.439  1.1709 -0.5487  0.6167
 2176SOL     OW 6843   4.711   1.766   2.472  0.1988  0.3147  0.0634
 2176SOL    HW1 6844   4.709   1.681   2.516  1.8155 -1.2929 -2.6981
 2176SOL    HW2 6845   4.711   1.830   2.544 -1.1530 -1.9506  2.2405
 2177SOL     OW 6846   1.991   2.788   2.579 -0.1383  0.5125 -0.5190
 2177SOL    HW1 6847   1.938   2.742   2.644 -0.5765 -1.0726 -1.9035
 2177SOL    HW2 6848   2.008   2.721   2.512  0.1382  2.1096 -2.1091
 2178SOL     OW 6849   2.980   4.772   1.202 -0.2320  0.1915  0.3660
 2178SOL    HW1 6850   3.022   4.687   1.211 -0.6450  0.1703  2.8027
 2178SOL    HW2 6851   3.017   4.810   1.122 -0.8477 -2.6868 -1.3986
 2179SOL     OW 6852   4.162   3.554   3.439  0.0549  0.5724  0.0949
 2179SOL    HW1 6853   4.243   3.593   3.405  0.1221  0.4762  0.1462
 2179SOL    HW2 6854   4.178   3.543   3.533  0.1112  0.2304  0.0442
 2180SOL     OW 6855   4.863   5.037   5.488  0.3316 -0.2183  0.7418
 2180SOL    HW1 6856   4.833   4.975   5.421 -0.4525  0.8875  0.0315
 2180SOL    HW2 6857   4.938   4.994   5.529  2.0874 -0.1482 -2.1395
 2181SOL     OW 6858   5.023   3.462   4.761 -0.1234 -0.3189  0.1135
 2181SOL    HW1 6859   5.011   3.374   4.726 -0.8459 -0.7547  1.4103
 2181SOL    HW2 6860   5.016   3.452   4.856  1.6551  0.8509  0.4183
 2182SOL     OW 6861   0.525   1.442   0.090 -0.0607  0.4913 -0.7984
 2182SOL    HW1 6862   0.613   1.444   0.127  0.0719 -2.1365 -0.7347
 2182SOL    HW2 6863   0.478   1.380   0.146 -2.2773  2.5010 -0.2792
 2183SOL     OW 6864   2.150   0.159   0.140  0.2095 -0.0840  0.7055
 2183SOL    HW1 6865   2.213   0.128   0.075  0.6276  2.0412  0.0090
 2183SOL    HW2 6866   2.066   0.124   0.110  0.2628  1.4248 -1.4866
 2184SOL     OW 6867   1.164   1.379   1.335  0.1615 -0.3575 -0.0578
 2184SOL    HW1 6868   1.092   1.428   1.297  0.4238  1.0678  1.1777
 2184SOL    HW2 6869   1.227   1.368   1.263  0.5407  2.0272 -0.1679
 2185SOL     OW 6870   2.597   5.388   2.997  0.3376 -0.4402 -0.3972
 2185SOL    HW1 6871   2.504   5.381   3.016  0.3076 -1.7573 -0.8847
 2185SOL    HW2 6872   2.629   5.457   3.055 -1.0856  0.6533 -0.8603
 2186SOL     OW 6873   3.384   2.068   4.395  0.5118  0.2286 -0.0054
 2186SOL    HW1 6874   3.340   2.010   4.333 -1.1563  1.2495  0.1716
 2186SOL    HW2 6875   3.343   2.154   4.381  1.4663  0.9050  1.1603
 2187SOL     OW 6876   4.005   1.589   0.133 -0.4939 -0.7483  0.0316
 2187SOL    HW1 6877   4.079   1.528   0.143 -0.9852 -1.4154 -0.2983
 2187SOL    HW2 6878   4.010   1.616   0.041 -1.2381 -1.5709 -0.2613
 2188SOL     OW 6879   3.324   4.861   1.188  0.3342  0.2984  0.0673
 2188SOL    HW1 6880   3.389   4.808   1.236 -0.7602 -1.2264 -0.0593
 2188SOL    HW2 6881   3.357   4.951   1.195  1.0864 -0.0778  2.2501
 2189SOL     OW 6882   0.535   4.137   3.701  0.4924  0.2326 -0.1384
 2189SOL    HW1 6883   0.543   4.223   3.659 -0.9629  1.5378  2.0273
 2189SOL    HW2 6884   0.442   4.116   3.694 -0.0031  0.8707  2.8447
 2190SOL     OW 6885   2.623   2.958   5.064 -0.5788  0.0674  0.5293
 2190SOL    HW1 6886   2.643   2.877   5.017  0.6246  0.6123  0.0947
 2190SOL    HW2 6887   2.708   2.993   5.090 -1.1450  0.5786  1.7739
 2191SOL     OW 6888   4.189   3.817   0.139 -0.6600 -0.1618  0.2303
 2191SOL    HW1 6889   4.245   3.810   0.216  0.3483 -0.9717 -0.5521
 2191SOL    HW2 6890   4.158   3.727   0.124  0.7617 -0.4272 -1.4474
 2192SOL     OW 6891   2.469   3.442   4.470  0.5941  0.0309 -0.1038
 2192SOL    HW1 6892   2.466   3.351   4.444  0.0102 -0.7128  2.2739
 2192SOL    HW2 6893   2.454   3.440   4.565  1.5468  2.5118  0.1728
 2193SOL     OW 6894   3.416   4.814   4.283  0.2421  0.3345  0.7489
 2193SOL    HW1 6895   3.345   4.862   4.239  1.1959  1.0077 -0.0822
 2193SOL    HW2 6896   3.427   4.860   4.366  0.8526  1.3066  0.1432
 2194SOL     OW 6897   4.381   3.917   5.308 -0.0273  0.6489  0.4655
 2194SOL    HW1 6898   4.395   3.985   5.243 -1.1527  0.2748 -0.2025
 2194SOL    HW2 6899   4.419   3.838   5.269  0.4699  0.6956  0.8444
 2195SOL     OW 6900   1.028   2.242   0.751 -0.2762  0.0402 -0.4446
 2195SOL    HW1 6901   1.029   2.314   0.814 -0.2692 -0.3823  0.0450
 2195SOL    HW2 6902   1.052   2.283   0.668  3.2504  0.0374  0.4162
 2196SOL     OW 6903   0.135   1.863   4.320 -0.1664  0.1447 -0.5369
 2196SOL    HW1 6904   0.158   1.954   4.300 -0.1872 -0.0962 -1.7289
 2196SOL    HW2 6905   0.041   1.859   4.307 -0.4563  0.3647  1.2640
 2197SOL     OW 6906   1.619   1.372   1.879  0.4881  0.0247 -0.3618
 2197SOL    HW1 6907   1.600   1.324   1.798 -0.8133 -0.7006  0.3531
 2197SOL    HW2 6908   1.535   1.380   1.923  0.9181  1.7557  0.2211
 2198SOL     OW 6909   4.154   5.484   5.487 -0.7996  0.1399 -0.2753
 2198SOL    HW1 6910   4.238   5.474   5.532 -1.0575  0.6595  0.3496
 2198SOL    HW2 6911   4.165   5.559   5.430 -0.4983 -0.4692 -1.0231
 2199SOL     OW 6912   0.943   2.102   2.134  0.4863 -0.8263  0.0372
 2199SOL    HW1 6913   0.870   2.045   2.158  2.5638 -3.0328  1.5532
 2199SOL    HW2 6914   0.993   2.114   2.215  1.3772  1.3780 -0.7333
 2200SOL     OW 6915   0.962   2.182   4.118 -0.1146 -0.0737  0.1556
 2200SOL    HW1 6916   0.962   2.255   4.180 -0.6606 -0.0513  0.1331
 2200SOL    HW2 6917   0.873   2.147   4.122  0.6074 -1.9355  1.5598
 2201SOL     OW 6918   2.865   0.945   2.392 -0.0332  0.1055  0.4468
 2201SOL    HW1 6919   2.939   0.911   2.342  0.4587  0.4793  0.9026
 2201SOL    HW2 6920   2.788   0.904   2.353  0.2206  1.1979 -1.3525
 2202SOL     OW 6921   2.823   3.252   0.893  0.4261 -0.1536  0.2117
 2202SOL    HW1 6922   2.796   3.190   0.825  1.2071  0.1041 -0.3514
 2202SOL    HW2 6923   2.830   3.198   0.972  2.3956 -1.1213 -0.5411
 2203SOL     OW 6924   5.172   1.639   3.014  0.3060 -0.0797 -1.0096
 2203SOL    HW1 6925   5.227   1.650   3.091  1.0572 -0.7179 -1.4357
 2203SOL    HW2 6926   5.189   1.717   2.961  1.2593 -0.5361 -1.4013
 2204SOL     OW 6927   4.653   3.338   1.334 -0.0555 -0.1504 -0.0406
 2204SOL    HW1 6928   4.681   3.392   1.408  0.8150 -0.9363  0.2371
 2204SOL    HW2 6929   4.587   3.278   1.372  0.5584 -0.7071  0.1722
 2205SOL     OW 6930   1.222   2.573   4.289 -0.4267 -0.3288  0.3228
 2205SOL    HW1 6931   1.209   2.609   4.377 -1.0470 -2.0965  1.0054
 2205SOL    HW2 6932   1.316   2.566   4.280 -0.3047  0.8976  0.3737
 2206SOL     OW 6933   2.506   3.163   2.948  0.0399 -0.2363  0.4262
 2206SOL    HW1 6934   2.551   3.084   2.977 -2.0614 -1.4240  0.6957
 2206SOL    HW2 6935   2.468   3.200   3.028  0.8917  0.9980  0.2871
 2207SOL     OW 6936   4.538   4.123   2.137 -0.1374  0.3341 -0.2196
 2207SOL    HW1 6937   4.628   4.091   2.142 -0.5748 -1.2196 -1.6158
 2207SOL    HW2 6938   4.492   4.077   2.207 -0.5565 -1.5267 -1.6404
 2208SOL     OW 6939   3.976   3.679   3.299 -0.0568  0.0401 -0.1943
 2208SOL    HW1 6940   4.044   3.657   3.363 -1.1063  0.6442  1.1777
 2208SOL    HW2 6941   3.930   3.596   3.284 -0.4435  0.0924  0.6348
 2209SOL     OW 6942   1.951   4.498   3.912 -0.0005  0.1858  0.0026
 2209SOL    HW1 6943   1.916   4.453   3.989  0.2944  0.0938  0.0811
 2209SOL    HW2 6944   1.886   4.566   3.894 -0.1018  0.1698  0.2935
 2210SOL     OW 6945   0.508   4.952   4.792  0.3605 -0.2617 -0.4368
 2210SOL    HW1 6946   0.474   4.975   4.878 -0.0494  0.5681 -0.8108
 2210SOL    HW2 6947   0.470   4.866   4.773 -1.7310  0.6953 -0.9197
 2211SOL     OW 6948   3.718   0.770   3.645  0.3124 -0.3698 -0.4993
 2211SOL    HW1 6949   3.794   0.823   3.620  0.2044  0.2858  0.5128
 2211SOL    HW2 6950   3.645   0.809   3.597  0.4384 -0.3706 -0.6938
 2212SOL     OW 6951   4.438   3.025   4.770 -0.3748  0.1736  0.5645
 2212SOL    HW1 6952   4.450   2.932   4.786  1.7838  0.2654 -0.1793
 2212SOL    HW2 6953   4.404   3.030   4.680 -0.4064  0.1022  0.5723
 2213SOL     OW 6954   2.103   2.796   0.597 -0.2055  0.1828 -0.4561
 2213SOL    HW1 6955   2.160   2.719   0.592 -0.7742 -0.2290 -0.6081
 2213SOL    HW2 6956   2.088   2.821   0.506  1.7137  1.7871 -0.4131
 2214SOL     OW 6957   2.795   2.041   5.451 -0.4084  0.3810  0.8460
 2214SOL    HW1 6958   2.819   2.058   5.542  2.8043  2.7927 -0.2897
 2214SOL    HW2 6959   2.744   2.118   5.425  0.0015  0.4247  0.1678
 2215SOL     OW 6960   3.739   0.183   2.204  0.3502  0.3918  0.4834
 2215SOL    HW1 6961   3.720   0.104   2.254 -0.0294  0.3511  0.2806
 2215SOL    HW2 6962   3.712   0.161   2.114 -1.0999  1.2231  0.6824
 2216SOL     OW 6963   2.890   0.047   3.858  0.3664  0.1456 -0.1636
 2216SOL    HW1 6964   2.937   0.130   3.852  0.3016  0.3723  1.8340
 2216SOL    HW2 6965   2.952  -0.018   3.826  0.7823  0.8352 -0.7894
 2217SOL     OW 6966   2.064   4.240   5.043 -0.3060  0.1863  0.2751
 2217SOL    HW1 6967   2.085   4.321   5.091 -1.2446 -0.2044  1.3945
 2217SOL    HW2 6968   2.148   4.211   5.008  0.1378  1.3596  0.3155
 2218SOL     OW 6969   2.375   0.712   1.170  1.4808 -0.5121  0.0963
 2218SOL    HW1 6970   2.389   0.737   1.261  0.9197  0.9290 -0.1849
 2218SOL    HW2 6971   2.320   0.782   1.134  0.6705 -1.6792 -1.0270
 2219SOL     OW 6972   4.915   2.454   0.160 -0.2006  0.6795 -0.1180
 2219SOL    HW1 6973   4.922   2.518   0.230  0.7388 -1.5369  1.9679
 2219SOL    HW2 6974   5.006   2.436   0.134  0.1024 -3.0628  2.6948
 2220SOL     OW 6975   2.840   3.129   1.148  0.4144  0.4199  0.3861
 2220SOL    HW1 6976   2.883   3.185   1.213 -1.7738 -1.5400  3.8382
 2220SOL    HW2 6977   2.870   3.041   1.170 -2.7731 -0.6379  0.9256
 2221SOL     OW 6978   3.063   5.013   1.714 -0.1564  0.2376  0.7124
 2221SOL    HW1 6979   2.968   5.004   1.701 -0.0716 -0.3686  0.4785
 2221SOL    HW2 6980   3.071   5.073   1.789 -0.7434 -0.5888  1.4613
 2222SOL     OW 6981   4.204   4.228   0.375 -0.3380  0.8653 -0.8992
 2222SOL    HW1 6982   4.278   4.227   0.314  1.8696  0.8449  1.6166
 2222SOL    HW2 6983   4.195   4.320   0.400 -0.0870  0.6611 -0.0127
 2223SOL     OW 6984   1.711   2.624   2.355 -0.0146  0.5386  0.1319
 2223SOL    HW1 6985   1.805   2.608   2.352 -0.2556 -0.9079 -2.1350
 2223SOL    HW2 6986   1.690   2.628   2.448  2.3697  1.6114  0.6985
 2224SOL     OW 6987   0.756   5.194   0.228  0.1796  0.1077 -0.2386
 2224SOL    HW1 6988   0.733   5.230   0.314 -0.7922  0.1287 -0.4914
 2224SOL    HW2 6989   0.849   5.213   0.218  0.3226  0.0193  0.8462
 2225SOL     OW 6990   3.282   5.076   1.574  0.0672 -0.7277 -0.2939
 2225SOL    HW1 6991   3.363   5.058   1.621  0.0661 -1.3949 -0.5316
 2225SOL    HW2 6992   3.213   5.066   1.640  0.0763 -1.5270 -0.3954
 2226SOL     OW 6993   2.203   2.101   2.347 -0.1353  0.1423 -0.1474
 2226SOL    HW1 6994   2.109   2.122   2.346 -1.0047 -3.0660  0.4913
 2226SOL    HW2 6995   2.218   2.064   2.434  1.5592 -0.0681 -0.5033
 2227SOL     OW 6996   2.041   3.205   1.863 -0.6371 -0.2875 -0.1426
 2227SOL    HW1 6997   1.988   3.241   1.934  0.2630 -1.0256  0.9361
 2227SOL    HW2 6998   2.006   3.117   1.848  0.9786 -1.2741  1.4309
 2228SOL     OW 6999   4.013   2.883   2.289  0.3147  0.0410 -0.0871
 2228SOL    HW1 7000   3.998   2.828   2.213  0.0543  0.3044 -0.2293
 2228SOL    HW2 7001   4.054   2.962   2.254  0.3282  0.1024  0.0641
 2229SOL     OW 7002   4.922   2.538   3.397 -0.2090 -0.2068 -0.2664
 2229SOL    HW1 7003   4.856   2.539   3.466  1.0162 -2.0481  1.0458
 2229SOL    HW2 7004   4.924   2.447   3.367  0.3661  0.2394 -1.6686
 2230SOL     OW 7005   2.709   2.702   3.747  0.0225 -0.0512  0.1395
 2230SOL    HW1 7006   2.644   2.635   3.768  0.4509 -0.9876 -1.3968
 2230SOL    HW2 7007   2.710   2.759   3.824 -2.6015  0.0076  0.2064
 2231SOL     OW 7008   1.931   4.345   5.550  0.4082 -0.2347  0.3369
 2231SOL    HW1 7009   1.955   4.396   5.473 -1.0400 -0.5822 -0.3962
 2231SOL    HW2 7010   2.014   4.322   5.592  1.2255 -0.1393 -1.1881
 2232SOL     OW 7011   1.979   3.587   5.241  0.2709  0.3120 -0.5007
 2232SOL    HW1 7012   2.025   3.668   5.219  0.5298  0.6297  1.0619
 2232SOL    HW2 7013   1.989   3.579   5.336  0.3381 -1.6087 -0.6163
 2233SOL     OW 7014   4.907   0.476   5.218 -0.3817  0.2078  0.3401
 2233SOL    HW1 7015   4.902   0.561   5.263 -0.7494 -0.0932  0.8839
 2233SOL    HW2 7016   4.966   0.424   5.273  1.5978  0.7732 -1.1225
 2234SOL     OW 7017   5.186   2.585   5.189 -0.4944 -0.8291 -0.2486
 2234SOL    HW1 7018   5.220   2.539   5.266 -1.1170  1.6714  1.6858
 2234SOL    HW2 7019   5.264   2.607   5.138  0.2023 -0.5086  0.9159
 2235SOL     OW 7020   5.182   0.909   2.230 -0.6243  0.5790 -0.1352
 2235SOL    HW1 7021   5.135   0.848   2.288 -0.0149  1.1446  0.9796
 2235SOL    HW2 7022   5.182   0.865   2.145 -0.6398 -0.7554  0.5220
 2236SOL     OW 7023   2.446   2.706   2.885  0.0536  0.4058  0.0091
 2236SOL    HW1 7024   2.361   2.689   2.846  0.1020 -0.8498  0.3772
 2236SOL    HW2 7025   2.427   2.733   2.975  0.0252  0.1170  0.0939
 2237SOL     OW 7026   0.750   3.578   4.198 -0.0432  0.1881  0.0413
 2237SOL    HW1 7027   0.662   3.610   4.182 -0.4200 -1.0758 -0.5546
 2237SOL    HW2 7028   0.804   3.625   4.135  0.0099  2.1515  1.4731
 2238SOL     OW 7029   1.144   2.763   4.113  1.1265 -0.1944 -0.3422
 2238SOL    HW1 7030   1.177   2.707   4.183 -0.5074  1.4133  1.8448
 2238SOL    HW2 7031   1.055   2.731   4.097  0.8526  0.5692 -0.3867
 2239SOL     OW 7032   3.525   3.322   1.565 -0.1558 -0.0359 -0.3000
 2239SOL    HW1 7033   3.466   3.270   1.620 -0.6357  0.6104 -0.2014
 2239SOL    HW2 7034   3.475   3.399   1.541  0.4500  0.2418 -0.7059
 2240SOL     OW 7035   1.426   5.351   4.114 -0.1175 -0.5132 -0.0862
 2240SOL    HW1 7036   1.339   5.329   4.147 -0.0771 -1.0734 -0.3562
 2240SOL    HW2 7037   1.485   5.325   4.185 -0.2298  0.8674  0.5657
 2241SOL     OW 7038   0.539   4.840   5.538 -0.1694  0.5970 -0.5243
 2241SOL    HW1 7039   0.529   4.797   5.622 -1.2255  1.0559 -0.4005
 2241SOL    HW2 7040   0.451   4.872   5.516 -0.3257 -1.0311 -2.6176
 2242SOL     OW 7041   5.383   1.583   1.957  0.1029  0.2003 -0.8289
 2242SOL    HW1 7042   5.312   1.536   1.915  1.5079 -0.7674 -2.2385
 2242SOL    HW2 7043   5.459   1.569   1.900  1.5231  0.8826  0.7791
 2243SOL     OW 7044   1.457   1.665   4.594 -0.0652 -0.4121 -0.0443
 2243SOL    HW1 7045   1.405   1.745   4.601  0.5700 -0.0169  0.1866
 2243SOL    HW2 7046   1.409   1.601   4.647  0.7442  0.5016  1.8773
 2244SOL     OW 7047   1.967   3.022   0.088 -0.4176  0.2037  0.3584
 2244SOL    HW1 7048   1.985   3.116   0.087  2.6681 -0.2908 -0.8353
 2244SOL    HW2 7049   1.905   3.009   0.016 -0.9169  1.3052  0.5682
 2245SOL     OW 7050   3.411   1.577   1.732 -0.0931 -0.3144 -0.0810
 2245SOL    HW1 7051   3.460   1.511   1.684 -2.8613 -1.2294 -1.9117
 2245SOL    HW2 7052   3.377   1.530   1.809 -0.1205 -0.3498 -0.1148
 2246SOL     OW 7053   3.454   0.336   1.194  0.0816  0.1567 -0.0961
 2246SOL    HW1 7054   3.466   0.251   1.153  0.3687  0.0437  0.2147
 2246SOL    HW2 7055   3.475   0.399   1.125  0.7012 -0.0322 -0.0861
 2247SOL     OW 7056   4.345   0.994   5.224  0.1440 -0.5153 -0.4135
 2247SOL    HW1 7057   4.259   0.976   5.186 -0.4443 -0.3364  0.7727
 2247SOL    HW2 7058   4.374   0.910   5.259  0.1868 -0.4515 -0.2969
 2248SOL     OW 7059   3.549   1.013   1.430  0.0943 -0.3695  0.3579
 2248SOL    HW1 7060   3.524   1.089   1.378 -1.2846  0.9226  2.7463
 2248SOL    HW2 7061   3.642   1.025   1.447  0.3445 -0.3124 -0.9505
 2249SOL     OW 7062   1.829   5.353   4.897  0.5150  0.1570 -0.0137
 2249SOL    HW1 7063   1.789   5.391   4.818  0.6166  0.7971  0.2353
 2249SOL    HW2 7064   1.919   5.334   4.871  0.7323  0.9622  0.1288
 2250SOL     OW 7065   1.289   1.873   5.197  0.0358  0.5412  0.2169
 2250SOL    HW1 7066   1.280   1.934   5.124 -0.3081 -0.5467 -0.6858
 2250SOL    HW2 7067   1.347   1.805   5.164  1.5101  1.0307  1.6694
 2251SOL     OW 7068   5.550   3.379   4.477  0.5799  0.0217  0.6061
 2251SOL    HW1 7069   5.486   3.442   4.443  0.9854 -0.0318 -0.2842
 2251SOL    HW2 7070   5.635   3.422   4.463  0.9725 -1.2840 -1.3216
 2252SOL     OW 7071   2.666   3.709   2.952  0.4276 -0.3932 -0.0261
 2252SOL    HW1 7072   2.639   3.662   3.031  0.3508 -0.3273 -0.0133
 2252SOL    HW2 7073   2.756   3.737   2.971  0.5805 -0.7900 -0.1495
 2253SOL     OW 7074   0.368   5.235   1.257  0.4896 -0.6017  0.0877
 2253SOL    HW1 7075   0.309   5.200   1.191 -1.4771  1.2799  0.7543
 2253SOL    HW2 7076   0.387   5.325   1.228 -0.8687  0.4688  2.2624
 2254SOL     OW 7077   5.390   0.742   4.002  0.2359  0.0115 -0.8518
 2254SOL    HW1 7078   5.342   0.693   3.935 -0.3115 -0.9093  0.1855
 2254SOL    HW2 7079   5.482   0.718   3.987  0.0408 -0.8097 -0.7815
 2255SOL     OW 7080   1.433   2.407   2.087 -0.0369 -0.3527 -0.4661
 2255SOL    HW1 7081   1.391   2.326   2.058  0.0088 -0.1897 -1.0095
 2255SOL    HW2 7082   1.361   2.469   2.098 -0.1409 -0.6488  0.5981
 2256SOL     OW 7083   1.968   2.728   5.504  0.1142 -0.5463  0.3949
 2256SOL    HW1 7084   1.947   2.672   5.580 -0.8489 -0.9678 -0.1619
 2256SOL    HW2 7085   2.057   2.701   5.479 -0.2470 -1.6947  0.2710
 2257SOL     OW 7086   3.517   4.672   3.360 -0.1212  0.1470 -0.0656
 2257SOL    HW1 7087   3.475   4.729   3.425  1.1708  1.7711 -0.5942
 2257SOL    HW2 7088   3.611   4.688   3.371  0.1482  0.2250 -2.1104
 2258SOL     OW 7089   4.861   3.684   1.673 -0.5664  0.0459  0.0647
 2258SOL    HW1 7090   4.893   3.655   1.588  0.2768 -0.7975  0.6550
 2258SOL    HW2 7091   4.793   3.748   1.652  0.1096  0.3729 -1.2267
 2259SOL     OW 7092   1.624   2.614   3.825 -0.3338 -0.0072  0.3652
 2259SOL    HW1 7093   1.532   2.639   3.834 -0.7099  0.6233 -3.4725
 2259SOL    HW2 7094   1.670   2.698   3.816  0.1633 -0.3653 -0.5714
 2260SOL     OW 7095   2.334   3.441   5.309  0.1703  0.4533 -0.4445
 2260SOL    HW1 7096   2.347   3.445   5.214 -0.7185  0.4314 -0.5772
 2260SOL    HW2 7097   2.316   3.532   5.335  1.1891  0.5856 -0.1692
 2261SOL     OW 7098   1.027   3.824   4.815  0.4590  0.3119  0.6995
 2261SOL    HW1 7099   1.076   3.777   4.882 -0.4984 -1.3980  0.2698
 2261SOL    HW2 7100   0.943   3.778   4.809  0.2821  0.7624 -1.2241
 2262SOL     OW 7101   2.338   1.360   5.228  0.0997 -0.5858 -0.2084
 2262SOL    HW1 7102   2.266   1.354   5.291  0.5266 -1.0417  0.2487
 2262SOL    HW2 7103   2.295   1.370   5.143 -0.4890  0.5826  0.1940
 2263SOL     OW 7104   2.821   4.766   1.428  0.1638 -0.7688  0.0525
 2263SOL    HW1 7105   2.783   4.680   1.411  0.3536 -0.7223 -0.6286
 2263SOL    HW2 7106   2.875   4.784   1.351  0.5826 -0.2907  0.4502
 2264SOL     OW 7107   3.505   0.229   2.795 -0.5676 -0.3234  0.2061
 2264SOL    HW1 7108   3.572   0.278   2.842 -1.2442 -0.3078  1.1923
 2264SOL    HW2 7109   3.440   0.295   2.770  0.5663 -0.0162 -2.3319
 2265SOL     OW 7110   1.737   3.300   1.849  0.1646  0.7872 -0.3275
 2265SOL    HW1 7111   1.716   3.207   1.840 -2.4583  0.7616  3.5645
 2265SOL    HW2 7112   1.693   3.342   1.776 -0.0486 -0.8585 -1.1965
 2266SOL     OW 7113   2.866   3.606   3.198 -0.2766  0.2881  0.9132
 2266SOL    HW1 7114   2.895   3.530   3.147 -3.8332 -0.7206  0.0969
 2266SOL    HW2 7115   2.915   3.679   3.161  0.7187 -1.1142 -0.7109
 2267SOL     OW 7116   1.268   0.865   2.911  0.1845  0.1337  0.0253
 2267SOL    HW1 7117   1.207   0.929   2.873 -1.6790 -1.0577  0.8424
 2267SOL    HW2 7118   1.347   0.872   2.857 -1.5792 -0.0503 -2.8006
 2268SOL     OW 7119   1.332   0.324   0.130  0.3038  0.7640 -0.1852
 2268SOL    HW1 7120   1.271   0.339   0.057 -0.0348  1.4196  0.2290
 2268SOL    HW2 7121   1.377   0.243   0.106 -1.1323 -0.0714 -0.2405
 2269SOL     OW 7122   0.819   3.075   4.370 -0.2774  0.2338  0.6899
 2269SOL    HW1 7123   0.759   3.059   4.297 -0.4331 -0.3723  0.9495
 2269SOL    HW2 7124   0.786   3.020   4.441  0.7986 -0.3884  0.7288
 2270SOL     OW 7125   1.624   0.987   4.143  0.1777  0.0187 -0.0527
 2270SOL    HW1 7126   1.611   0.906   4.094  0.7949 -1.1538  1.5972
 2270SOL    HW2 7127   1.620   0.959   4.235 -0.7075  2.0681  0.5718
 2271SOL     OW 7128   3.631   0.237   4.004 -0.2177 -0.3115 -0.0446
 2271SOL    HW1 7129   3.614   0.201   3.917 -0.9630 -0.4723  0.1630
 2271SOL    HW2 7130   3.698   0.179   4.041  0.9408  0.4079 -0.9171
 2272SOL     OW 7131   4.263   2.095   1.936 -0.3055  0.3870  0.0827
 2272SOL    HW1 7132   4.248   2.060   2.024  1.7838  0.6708  0.6240
 2272SOL    HW2 7133   4.329   2.037   1.898 -0.3379  0.9346 -0.8390
 2273SOL     OW 7134   4.877   0.902   0.680  0.1039  0.1900  0.4665
 2273SOL    HW1 7135   4.855   0.959   0.754  0.8982  0.1504  0.7439
 2273SOL    HW2 7136   4.892   0.816   0.719 -0.1628  0.0067  0.1694
 2274SOL     OW 7137   1.461   0.794   2.375  0.1051 -0.3468  0.0658
 2274SOL    HW1 7138   1.539   0.740   2.355  0.7413  0.8354 -0.7755
 2274SOL    HW2 7139   1.387   0.736   2.356  0.7525 -0.6128 -1.9290
 2275SOL     OW 7140   4.592   2.072   4.093 -0.2562 -0.4073 -0.0191
 2275SOL    HW1 7141   4.657   2.004   4.074  1.1335  1.1400 -1.0732
 2275SOL    HW2 7142   4.537   2.075   4.015 -0.0634 -0.0442 -0.1404
 2276SOL     OW 7143   5.431   0.464   3.589  0.3189 -0.0194 -0.5131
 2276SOL    HW1 7144   5.445   0.403   3.662 -0.3208 -0.8639 -1.0761
 2276SOL    HW2 7145   5.519   0.480   3.555  0.4944 -0.7378 -0.4272
 2277SOL     OW 7146   1.020   4.743   4.829 -0.0964  0.7626  0.1600
 2277SOL    HW1 7147   0.985   4.810   4.887 -0.2409  0.1473  0.7993
 2277SOL    HW2 7148   0.945   4.686   4.811  0.1081  0.5623 -0.0683
 2278SOL     OW 7149   1.582   2.200   5.487 -1.1619  0.2074  0.3315
 2278SOL    HW1 7150   1.576   2.166   5.397  0.6028 -0.4126  0.4001
 2278SOL    HW2 7151   1.536   2.284   5.484  2.8941  2.7190 -2.5480
 2279SOL     OW 7152   3.954   1.320   1.088 -0.1032  0.2304 -0.6515
 2279SOL    HW1 7153   3.955   1.227   1.113 -2.0015  0.5615  0.8958
 2279SOL    HW2 7154   4.037   1.355   1.121 -0.3782 -0.4386  0.7938
 2280SOL     OW 7155   3.374   0.261   3.756  0.5885 -0.2836  0.5078
 2280SOL    HW1 7156   3.456   0.291   3.717 -0.1522 -0.3168 -1.1648
 2280SOL    HW2 7157   3.381   0.166   3.758  0.1838 -0.3548 -0.6576
 2281SOL     OW 7158   2.690   5.261   2.639  0.1653 -0.0600 -0.0502
 2281SOL    HW1 7159   2.665   5.353   2.637 -0.1327 -0.1359  0.1724
 2281SOL    HW2 7160   2.746   5.250   2.562 -1.7312 -0.2522 -1.4752
 2282SOL     OW 7161   1.424   5.411   4.859  0.0591 -0.3950  0.6252
 2282SOL    HW1 7162   1.445   5.453   4.775  0.2356 -1.0436  0.3450
 2282SOL    HW2 7163   1.402   5.321   4.836 -0.7944 -0.3418  1.1781
 2283SOL     OW 7164   0.597   0.937   4.058  0.4394  0.2787 -0.3290
 2283SOL    HW1 7165   0.680   0.905   4.094 -0.3816  0.4636  1.9366
 2283SOL    HW2 7166   0.555   0.859   4.022  1.1579  0.0035 -0.6011
 2284SOL     OW 7167   4.116   2.800   1.839 -0.7078  0.7541 -0.6269
 2284SOL    HW1 7168   4.135   2.892   1.855 -0.0698  0.6263 -0.6195
 2284SOL    HW2 7169   4.113   2.792   1.744  0.8908  0.4737 -0.6788
 2285SOL     OW 7170   5.111   0.471   0.738 -0.2087 -1.1974  0.5143
 2285SOL    HW1 7171   5.205   0.487   0.731 -0.3448 -0.3181  0.6523
 2285SOL    HW2 7172   5.104   0.376   0.749  0.5641 -1.5183 -1.3235
 2286SOL     OW 7173   2.802   3.986   2.921 -0.2963  0.0237 -0.9020
 2286SOL    HW1 7174   2.730   3.981   2.858 -0.4474 -0.4365 -0.6914
 2286SOL    HW2 7175   2.769   4.043   2.991  0.1287  1.1157 -1.5723
 2287SOL     OW 7176   4.252   5.530   4.275 -0.1589 -0.1323  0.1849
 2287SOL    HW1 7177   4.295   5.605   4.235 -1.0448  1.0956  1.4373
 2287SOL    HW2 7178   4.302   5.513   4.355  0.3548 -1.2402 -0.3467
 2288SOL     OW 7179   0.759   5.323   1.615  0.1227  0.2315  0.3096
 2288SOL    HW1 7180   0.836   5.329   1.559  0.5069 -0.0753  0.7959
 2288SOL    HW2 7181   0.727   5.234   1.603 -0.3077  0.4380 -0.0864
 2289SOL     OW 7182   0.824   4.567   0.237  0.2488  0.4182  0.4751
 2289SOL    HW1 7183   0.908   4.532   0.209  0.3025  1.8982 -1.4280
 2289SOL    HW2 7184   0.839   4.598   0.327  1.6987  0.5392  0.2091
 2290SOL     OW 7185   0.024   4.984   1.814  0.5171 -0.5898 -0.2253
 2290SOL    HW1 7186  -0.042   5.035   1.767 -0.6464 -0.2950  1.6223
 2290SOL    HW2 7187   0.107   5.027   1.792  0.0201 -0.3207 -1.7648
 2291SOL     OW 7188   1.858   0.446   5.557 -0.3380  0.0598  0.2218
 2291SOL    HW1 7189   1.860   0.402   5.642  0.5944  0.6482  0.5271
 2291SOL    HW2 7190   1.827   0.534   5.576  1.3703  0.6959  0.2321
 2292SOL     OW 7191   5.362   4.856   5.549 -0.4139 -0.4146 -0.1129
 2292SOL    HW1 7192   5.409   4.813   5.620  2.3453  2.9481  0.3862
 2292SOL    HW2 7193   5.310   4.924   5.592  1.0170  1.4377 -1.1255
 2293SOL     OW 7194   0.569   3.287   4.055 -0.1134  0.1438  0.1126
 2293SOL    HW1 7195   0.613   3.340   3.989  1.2660 -0.2237  0.6911
 2293SOL    HW2 7196   0.606   3.199   4.044  2.7733  0.7242  3.4634
 2294SOL     OW 7197   5.399   0.942   2.536  0.0253 -0.4773  0.4593
 2294SOL    HW1 7198   5.376   1.035   2.531 -1.1619 -0.7888 -0.8681
 2294SOL    HW2 7199   5.362   0.913   2.619  0.5491  0.2741  0.9605
 2295SOL     OW 7200   4.692   4.252   1.122  0.0728 -0.9844 -0.0646
 2295SOL    HW1 7201   4.761   4.187   1.106 -1.8805 -3.3521  0.5596
 2295SOL    HW2 7202   4.659   4.231   1.209 -0.6615  0.8865  0.1529
 2296SOL     OW 7203   4.872   4.237   4.375  0.3788 -0.2705  0.2345
 2296SOL    HW1 7204   4.908   4.203   4.457 -0.5442  0.9766  1.1975
 2296SOL    HW2 7205   4.948   4.271   4.327  0.6711  1.2521  1.6993
 2297SOL     OW 7206   1.419   1.415   0.497  0.0665 -0.5940 -0.0172
 2297SOL    HW1 7207   1.457   1.496   0.530  1.2418 -1.4771  0.8726
 2297SOL    HW2 7208   1.325   1.427   0.505  0.2696 -0.3032  2.5951
 2298SOL     OW 7209   0.652   1.641   2.144  0.4449 -0.2074  0.4908
 2298SOL    HW1 7210   0.623   1.569   2.089  0.2544  1.5504 -1.8396
 2298SOL    HW2 7211   0.598   1.634   2.223 -0.3872 -1.9046 -0.1891
 2299SOL     OW 7212   4.184   4.956   2.850 -0.2498  0.2772 -0.6911
 2299SOL    HW1 7213   4.263   4.920   2.810  0.0088  1.5244 -1.3807
 2299SOL    HW2 7214   4.158   5.027   2.791 -0.9745  0.9190  0.3568
 2300SOL     OW 7215   0.869   0.829   5.476 -0.1247  0.1788 -0.2153
 2300SOL    HW1 7216   0.816   0.836   5.555 -0.0157 -3.6196  0.3857
 2300SOL    HW2 7217   0.811   0.858   5.405 -1.7589 -0.5103  0.8005
 2301SOL     OW 7218   5.497   5.265   4.357  0.0855  0.5346 -0.2144
 2301SOL    HW1 7219   5.498   5.360   4.356  1.7665  0.5605 -1.0739
 2301SOL    HW2 7220   5.558   5.241   4.428  1.8397  0.1850 -1.7527
 2302SOL     OW 7221   1.822   2.361   3.390 -0.4654 -0.0721  0.3211
 2302SOL    HW1 7222   1.827   2.301   3.315 -1.0197 -0.1472  0.3341
 2302SOL    HW2 7223   1.899   2.341   3.442 -1.4474 -1.9295  1.1701
 2303SOL     OW 7224   3.344   0.718   0.980 -0.1945  0.4392  0.3304
 2303SOL    HW1 7225   3.331   0.723   1.074 -1.4795  1.5216  0.1239
 2303SOL    HW2 7226   3.423   0.769   0.964 -0.0577  0.3765  0.8012
 2304SOL     OW 7227   2.299   0.167   3.741 -0.1254  0.3370 -0.4725
 2304SOL    HW1 7228   2.210   0.201   3.749 -0.7929 -0.9075 -2.0870
 2304SOL    HW2 7229   2.288   0.078   3.708  1.7221  0.1939 -0.8196
 2305SOL     OW 7230   3.641   1.706   5.343 -0.1398 -0.1716 -0.0883
 2305SOL    HW1 7231   3.699   1.631   5.338 -0.5484 -0.6618  1.7644
 2305SOL    HW2 7232   3.680   1.763   5.409 -0.2670  0.8842 -0.8819
 2306SOL     OW 7233   4.864   2.412   1.420 -0.2173 -0.2498 -0.1636
 2306SOL    HW1 7234   4.951   2.447   1.437 -0.6164  2.2364 -2.4166
 2306SOL    HW2 7235   4.804   2.484   1.441 -1.7582 -1.8064  1.0873
 2307SOL     OW 7236   4.344   0.885   0.948 -0.1793 -0.3068 -0.5891
 2307SOL    HW1 7237   4.377   0.845   0.868  0.3711  0.6609 -0.8630
 2307SOL    HW2 7238   4.274   0.943   0.919 -1.0814 -1.1654 -0.1800
 2308SOL     OW 7239   4.102   0.193   4.076  0.3092 -0.0757 -0.3209
 2308SOL    HW1 7240   4.091   0.265   4.013 -1.7933 -0.0348  0.0041
 2308SOL    HW2 7241   4.070   0.116   4.030 -3.1368  0.2678  1.1645
 2309SOL     OW 7242   5.056   0.723   4.348 -0.0351  0.1577 -0.3289
 2309SOL    HW1 7243   5.063   0.726   4.443 -1.2173  0.4672 -0.2379
 2309SOL    HW2 7244   4.973   0.678   4.332 -1.8452  3.4376 -1.1172
 2310SOL     OW 7245   1.743   4.813   2.522 -0.4087 -0.4246 -0.4864
 2310SOL    HW1 7246   1.829   4.810   2.564  0.1952  0.1252 -1.6181
 2310SOL    HW2 7247   1.748   4.888   2.463 -1.3243 -0.9644 -1.2827
 2311SOL     OW 7248   5.117   3.320   2.284 -0.0045  0.1684  0.4823
 2311SOL    HW1 7249   5.040   3.343   2.231 -0.4792 -1.4881  0.4076
 2311SOL    HW2 7250   5.192   3.339   2.227 -0.3579  1.1729  0.3218
 2312SOL     OW 7251   3.210   3.575   3.947 -0.7886 -0.1242  0.5081
 2312SOL    HW1 7252   3.190   3.610   4.034 -2.7202 -0.7738  0.3577
 2312SOL    HW2 7253   3.176   3.641   3.886 -2.9346 -1.4060  0.2429
 2313SOL     OW 7254   2.970   3.631   0.487 -0.4117  0.2305 -0.1459
 2313SOL    HW1 7255   2.886   3.586   0.475 -0.1841 -0.2105 -0.0986
 2313SOL    HW2 7256   3.019   3.611   0.407 -0.5289  0.8889 -0.3907
 2314SOL     OW 7257   3.528   2.527   3.524  0.4679 -0.1001  0.2305
 2314SOL    HW1 7258   3.522   2.488   3.612  0.6457  2.0360  1.2496
 2314SOL    HW2 7259   3.484   2.464   3.467 -0.8998 -0.9069  2.0693
 2315SOL     OW 7260   3.808   1.599   0.573  0.0362  0.4683 -0.7927
 2315SOL    HW1 7261   3.723   1.608   0.615  0.0802  0.7141 -0.7547
 2315SOL    HW2 7262   3.849   1.685   0.583  1.3113 -0.3017  1.4488
 2316SOL     OW 7263   3.422   5.429   1.796 -0.0027 -0.4885  0.2064
 2316SOL    HW1 7264   3.379   5.396   1.875 -1.7269  2.3783  0.6131
 2316SOL    HW2 7265   3.491   5.487   1.828  1.7072 -2.0250 -0.4827
 2317SOL     OW 7266   0.761   2.505   1.447  0.2491  0.6354 -0.5233
 2317SOL    HW1 7267   0.681   2.500   1.499 -0.1329  2.6984 -0.8388
 2317SOL    HW2 7268   0.768   2.597   1.421  1.5091  0.0604 -2.4461
 2318SOL     OW 7269   5.250   2.934   1.709  0.1615  0.0362 -0.7624
 2318SOL    HW1 7270   5.165   2.892   1.695  0.8659 -1.1360 -1.7066
 2318SOL    HW2 7271   5.264   2.931   1.804 -1.6789  1.9854 -0.3526
 2319SOL     OW 7272   5.409   0.232   0.048 -0.0232 -0.4489 -0.4881
 2319SOL    HW1 7273   5.399   0.276  -0.037 -2.2084  0.1225 -0.0113
 2319SOL    HW2 7274   5.418   0.303   0.111  0.4710 -0.8320 -0.1213
 2320SOL     OW 7275   2.963   3.392   3.087  0.0080 -0.3322  0.1076
 2320SOL    HW1 7276   3.050   3.430   3.075  0.4220 -0.9109  1.0450
 2320SOL    HW2 7277   2.976   3.298   3.070 -0.1975 -0.5708  1.1575
 2321SOL     OW 7278   5.458   1.380   1.584  0.1115 -0.4073 -0.0681
 2321SOL    HW1 7279   5.494   1.291   1.587  1.1730 -0.0149 -0.7007
 2321SOL    HW2 7280   5.394   1.378   1.513  0.3600 -0.5897 -0.2888
 2322SOL     OW 7281   5.386   0.907   1.005 -0.5260  0.0646 -0.1700
 2322SOL    HW1 7282   5.435   0.891   0.924  0.6973  0.1851  0.5314
 2322SOL    HW2 7283   5.352   0.821   1.030  1.7338 -0.6146  0.8371
 2323SOL     OW 7284   3.635   5.516   2.314  0.4196  0.1753  0.4083
 2323SOL    HW1 7285   3.599   5.536   2.401  1.2795  1.1102  0.5632
 2323SOL    HW2 7286   3.671   5.428   2.324 -0.4730 -0.1753  0.6736
 2324SOL     OW 7287   3.834   0.043   4.696 -0.1751  0.7654 -0.3447
 2324SOL    HW1 7288   3.858   0.135   4.706  0.1998  0.6291  0.0653
 2324SOL    HW2 7289   3.825   0.011   4.786 -0.6755  0.4941 -0.4856
 2325SOL     OW 7290   5.016   4.621   4.671 -0.0330  0.2380  0.3327
 2325SOL    HW1 7291   4.975   4.680   4.608  1.6017  0.3029 -0.7267
 2325SOL    HW2 7292   5.034   4.677   4.747 -0.7371  0.4977  0.3173
 2326SOL     OW 7293   4.284   4.243   2.331  0.1735  0.3288 -0.0432
 2326SOL    HW1 7294   4.334   4.324   2.343  0.9471 -0.2195  0.4729
 2326SOL    HW2 7295   4.240   4.255   2.246  0.8202  0.9981 -0.2972
 2327SOL     OW 7296   3.871   4.850   0.519 -0.5606 -0.1959  0.7898
 2327SOL    HW1 7297   3.901   4.902   0.593 -2.4140  1.0546  0.7181
 2327SOL    HW2 7298   3.944   4.853   0.457  0.1592  0.5806  1.6350
 2328SOL     OW 7299   1.519   3.244   3.714 -0.0543  0.1672  0.1074
 2328SOL    HW1 7300   1.514   3.315   3.651  0.9229  0.7265  0.6334
 2328SOL    HW2 7301   1.612   3.220   3.717  0.0590  0.6217  1.7832
 2329SOL     OW 7302   2.628   1.020   1.339 -0.7155  0.5096  0.1988
 2329SOL    HW1 7303   2.693   1.008   1.270 -0.9254 -2.3179  0.4024
 2329SOL    HW2 7304   2.678   1.010   1.420 -0.9971  0.7940  0.4069
 2330SOL     OW 7305   4.511   0.433   1.743 -0.1915  0.1467 -0.5690
 2330SOL    HW1 7306   4.562   0.391   1.674  1.7405  0.6865  0.4582
 2330SOL    HW2 7307   4.576   0.465   1.806 -1.7878  1.1323  0.6868
 2331SOL     OW 7308   4.981   0.701   2.676 -0.3758  0.3631  0.5721
 2331SOL    HW1 7309   5.037   0.767   2.635 -0.7637 -0.2901 -1.0866
 2331SOL    HW2 7310   4.979   0.629   2.613 -2.4460  0.0644  0.9105
 2332SOL     OW 7311   2.765   4.260   1.313 -0.0826  0.5535 -0.2676
 2332SOL    HW1 7312   2.767   4.168   1.340  0.4909  0.4492 -0.6468
 2332SOL    HW2 7313   2.849   4.296   1.342  0.0337  0.7441 -0.8184
 2333SOL     OW 7314   2.865   4.546   4.183  0.3445 -0.9078  0.6646
 2333SOL    HW1 7315   2.830   4.520   4.098 -0.9365  2.1126  0.1401
 2333SOL    HW2 7316   2.814   4.495   4.246 -1.6623 -0.1841 -0.2878
 2334SOL     OW 7317   3.992   4.263   1.084  0.4437 -0.1242 -0.5375
 2334SOL    HW1 7318   4.010   4.291   1.173 -1.5425  1.2803 -0.5166
 2334SOL    HW2 7319   3.995   4.343   1.032  0.2951 -0.7209 -1.5087
 2335SOL     OW 7320   3.171   1.545   1.923 -0.2720  0.0664 -0.6587
 2335SOL    HW1 7321   3.111   1.567   1.995 -0.6460  0.8882 -1.2107
 2335SOL    HW2 7322   3.239   1.612   1.926  2.8503 -2.8586  2.3134
 2336SOL     OW 7323   4.374   4.460   4.209  0.1271  0.4468 -0.6129
 2336SOL    HW1 7324   4.426   4.415   4.276 -0.8610  0.6514  0.3313
 2336SOL    HW2 7325   4.295   4.407   4.199 -0.0622  0.8078 -1.0803
 2337SOL     OW 7326   4.724   4.760   3.602 -0.1960  0.3854 -0.5329
 2337SOL    HW1 7327   4.801   4.723   3.561 -0.0387 -0.1892  0.2629
 2337SOL    HW2 7328   4.704   4.701   3.674 -1.6563  0.2624 -1.0042
 2338SOL     OW 7329   0.908   2.960   1.212 -0.4905  0.6566 -0.3411
 2338SOL    HW1 7330   0.979   2.968   1.148  0.4279  0.6661  0.6488
 2338SOL    HW2 7331   0.865   3.045   1.211 -0.1249  0.8400 -0.5354
 2339SOL     OW 7332   0.316   4.583   1.222  0.0022  0.4450 -0.5890
 2339SOL    HW1 7333   0.341   4.495   1.249  0.4938 -0.0688 -2.5540
 2339SOL    HW2 7334   0.236   4.601   1.270  1.6956  0.3538  2.4850
 2340SOL     OW 7335   1.675   5.494   2.072  0.0764 -0.0031 -0.3664
 2340SOL    HW1 7336   1.667   5.401   2.095  0.0045 -0.2235 -1.2244
 2340SOL    HW2 7337   1.768   5.513   2.080 -0.0904  0.2600  1.2589
 2341SOL     OW 7338   2.611   3.679   0.597  0.2088  0.0419  0.2894
 2341SOL    HW1 7339   2.567   3.740   0.538 -1.2520 -1.4078 -0.1836
 2341SOL    HW2 7340   2.564   3.688   0.680  1.4864  1.1939  0.9321
 2342SOL     OW 7341   4.317   3.550   4.287  0.3865  0.0462  0.3999
 2342SOL    HW1 7342   4.368   3.501   4.222 -0.1214 -0.3459  0.2898
 2342SOL    HW2 7343   4.244   3.492   4.309  0.0742  0.5356  0.6737
 2343SOL     OW 7344   3.805   0.772   0.919  0.0508  0.4690 -0.5618
 2343SOL    HW1 7345   3.815   0.702   0.983 -0.1663  2.1263  1.3896
 2343SOL    HW2 7346   3.861   0.747   0.846 -0.0126 -1.6953  0.0788
 2344SOL     OW 7347   4.781   4.564   0.868 -0.3244 -0.7488 -0.2660
 2344SOL    HW1 7348   4.854   4.513   0.903 -0.8565 -1.6711 -0.4476
 2344SOL    HW2 7349   4.767   4.528   0.780  0.5113  1.0181 -1.1645
 2345SOL     OW 7350   3.360   5.459   4.434 -0.2281 -0.4126  0.1314
 2345SOL    HW1 7351   3.314   5.393   4.382 -2.1255  1.1359 -0.2411
 2345SOL    HW2 7352   3.299   5.481   4.505  0.5019  0.7161  0.4391
 2346SOL     OW 7353   5.248   1.135   1.026  0.1791  0.1274 -0.4907
 2346SOL    HW1 7354   5.256   1.153   0.932 -1.2257  0.1619 -0.6229
 2346SOL    HW2 7355   5.290   1.050   1.038 -0.2557 -0.2082 -1.2840
 2347SOL     OW 7356   4.700   3.803   0.107 -0.6774  0.1033  0.0640
 2347SOL    HW1 7357   4.606   3.802   0.086 -0.3250 -1.2380 -1.6700
 2347SOL    HW2 7358   4.710   3.878   0.165 -3.0681 -0.5775  1.5330
 2348SOL     OW 7359   2.898   1.964   3.302 -0.0760  0.9363  0.1577
 2348SOL    HW1 7360   2.937   2.008   3.378  1.9949 -0.5243  0.0207
 2348SOL    HW2 7361   2.848   1.892   3.339  0.7136  0.3847  0.1636
 2349SOL     OW 7362   2.351   4.689   2.350 -0.3929 -0.6079  0.0853
 2349SOL    HW1 7363   2.332   4.780   2.375 -0.8201 -0.7800  0.3900
 2349SOL    HW2 7364   2.348   4.640   2.432  0.1552 -0.8479 -0.0326
 2350SOL     OW 7365   1.944   4.999   4.906  0.3054  0.2809 -1.0902
 2350SOL    HW1 7366   1.899   4.914   4.904  0.1957  0.2246  1.0451
 2350SOL    HW2 7367   1.995   5.001   4.825  0.3942 -1.8658 -1.1554
 2351SOL     OW 7368   5.356   0.329   2.137  0.0936 -0.3913  0.3099
 2351SOL    HW1 7369   5.382   0.414   2.173 -1.0923 -0.1581  0.6465
 2351SOL    HW2 7370   5.410   0.319   2.058  0.4935  0.5096  0.4595
 2352SOL     OW 7371   4.447   2.876   2.444  0.1524  0.2879  0.2826
 2352SOL    HW1 7372   4.390   2.862   2.368  0.2996 -1.4323  0.4436
 2352SOL    HW2 7373   4.391   2.921   2.508 -0.4939  0.2051 -0.2078
 2353SOL     OW 7374   0.460   2.042   0.042 -0.8212 -0.5003  0.0221
 2353SOL    HW1 7375   0.550   2.008   0.045 -0.4298  0.0759 -2.7309
 2353SOL    HW2 7376   0.412   1.976  -0.009 -1.4229  0.2759 -0.4247
 2354SOL     OW 7377   0.379   5.306   4.327 -0.1990 -0.1766 -0.1920
 2354SOL    HW1 7378   0.364   5.225   4.375  0.5767 -0.1503  0.1050
 2354SOL    HW2 7379   0.321   5.370   4.369  1.3592  0.1628  1.5674
 2355SOL     OW 7380   2.964   3.378   4.012  0.0729 -0.0333  0.1860
 2355SOL    HW1 7381   3.034   3.405   4.072 -1.1798 -0.0271  1.7139
 2355SOL    HW2 7382   2.890   3.434   4.036 -0.7349 -0.6658 -0.7634
 2356SOL     OW 7383   4.815   0.077   3.612  0.3383 -0.0152  0.0648
 2356SOL    HW1 7384   4.814   0.147   3.547  0.1590 -1.0890 -1.1071
 2356SOL    HW2 7385   4.907   0.060   3.628  0.3823 -0.1800 -0.3737
 2357SOL     OW 7386   5.147   4.666   1.994  0.3506  0.2107 -0.1503
 2357SOL    HW1 7387   5.071   4.655   1.936  0.2765  0.2304 -0.0593
 2357SOL    HW2 7388   5.181   4.577   2.006  0.5657  0.2477 -0.4878
 2358SOL     OW 7389   5.152   5.290   1.823  0.4022  0.3782  0.1258
 2358SOL    HW1 7390   5.172   5.378   1.789  0.6681  0.5964  0.8228
 2358SOL    HW2 7391   5.164   5.232   1.748  0.9978  0.8445 -0.1531
 2359SOL     OW 7392   0.489   4.019   1.861  0.5290 -0.8597  0.1931
 2359SOL    HW1 7393   0.539   4.059   1.789  0.5883 -2.9511 -1.0016
 2359SOL    HW2 7394   0.399   4.017   1.829  0.1501  0.1892  1.1260
 2360SOL     OW 7395   3.465   1.424   5.170  0.4319  0.1852  0.0265
 2360SOL    HW1 7396   3.503   1.511   5.161  0.7136 -0.1240 -2.4557
 2360SOL    HW2 7397   3.496   1.376   5.093 -1.9892 -1.2250 -0.1908
 2361SOL     OW 7398   3.404   1.561   3.152 -0.3069  0.6705 -0.1288
 2361SOL    HW1 7399   3.374   1.553   3.061  2.1038  0.6476 -1.0077
 2361SOL    HW2 7400   3.484   1.614   3.145 -1.5935  3.1901  2.3548
 2362SOL     OW 7401   3.835   2.462   4.179  0.7070 -0.7882 -0.2971
 2362SOL    HW1 7402   3.848   2.470   4.274 -0.1614  0.3202 -0.2522
 2362SOL    HW2 7403   3.781   2.383   4.169 -0.7086  0.0626  0.3036
 2363SOL     OW 7404   1.525   1.961   4.411 -0.6659  0.1948 -0.3083
 2363SOL    HW1 7405   1.463   1.971   4.482 -0.1443 -1.0112  0.3518
 2363SOL    HW2 7406   1.508   2.035   4.353 -1.8493  0.5750  0.4952
 2364SOL     OW 7407   4.531   5.006   1.310 -0.2003  0.3414 -0.1580
 2364SOL    HW1 7408   4.589   4.986   1.384 -0.1459  0.8620 -0.0569
 2364SOL    HW2 7409   4.458   5.053   1.349 -1.1115 -1.0211 -0.1613
 2365SOL     OW 7410   4.282   4.808   5.085 -0.0109 -0.4305  0.1770
 2365SOL    HW1 7411   4.275   4.867   5.010  1.6059 -0.1168  0.2270
 2365SOL    HW2 7412   4.204   4.825   5.137 -0.0700  0.9391 -0.3289
 2366SOL     OW 7413   0.270   4.457   0.218  0.1718  0.4254  0.0673
 2366SOL    HW1 7414   0.268   4.403   0.139 -0.1067  0.6615 -0.0876
 2366SOL    HW2 7415   0.362   4.482   0.227  0.0152  1.4059 -0.8745
 2367SOL     OW 7416   1.623   1.668   3.278 -0.0474 -0.5393  0.1148
 2367SOL    HW1 7417   1.533   1.655   3.249  0.3150 -1.0312 -0.8591
 2367SOL    HW2 7418   1.633   1.609   3.353 -1.1353  1.0812  1.6308
 2368SOL     OW 7419   1.898   2.963   0.822  0.0115  0.4540 -0.2940
 2368SOL    HW1 7420   1.842   3.011   0.762  0.1821  1.2685  0.1898
 2368SOL    HW2 7421   1.987   2.977   0.790  0.3880  3.1425  1.6091
 2369SOL     OW 7422   1.562   1.256   0.358 -0.5368  0.2499  0.4450
 2369SOL    HW1 7423   1.506   1.315   0.408 -0.7988  0.0340  0.4085
 2369SOL    HW2 7424   1.517   1.244   0.275  0.0963  0.9268 -0.0068
 2370SOL     OW 7425   1.950   4.751   5.427 -0.3108 -0.3141 -0.4490
 2370SOL    HW1 7426   1.907   4.811   5.365  0.1799 -1.3515 -1.8556
 2370SOL    HW2 7427   1.942   4.665   5.386  1.1749 -0.8463  0.3220
 2371SOL     OW 7428   5.109   4.300   4.950 -0.1528 -0.3749 -0.3021
 2371SOL    HW1 7429   5.176   4.232   4.937 -0.2128 -0.3345 -0.8683
 2371SOL    HW2 7430   5.079   4.287   5.040  1.5271  0.4396  0.4338
 2372SOL     OW 7431   0.239   1.588   3.036 -0.3713 -0.0879 -0.2185
 2372SOL    HW1 7432   0.264   1.499   3.011  0.3868  0.5555 -1.9047
 2372SOL    HW2 7433   0.154   1.578   3.078 -1.2409 -1.4036 -2.1736
 2373SOL     OW 7434   2.789   2.435   0.440  0.1405 -0.0647  0.4307
 2373SOL    HW1 7435   2.787   2.340   0.432  0.1548  0.0224 -0.6574
 2373SOL    HW2 7436   2.827   2.466   0.358  1.5887  0.8061  1.3686
 2374SOL     OW 7437   1.176   0.110   3.411 -0.6098 -0.1111 -0.1073
 2374SOL    HW1 7438   1.100   0.092   3.356  0.8057  0.0885 -2.2397
 2374SOL    HW2 7439   1.176   0.205   3.421 -1.5221 -0.2243  1.3174
 2375SOL     OW 7440   0.901   0.364   2.516 -0.2797  0.0321 -0.2382
 2375SOL    HW1 7441   0.951   0.320   2.447 -0.8367 -1.0406  0.0221
 2375SOL    HW2 7442   0.822   0.394   2.473 -1.8532 -2.8599  0.3561
 2376SOL     OW 7443   1.728   0.893   3.644 -0.1511  0.2011  0.1889
 2376SOL    HW1 7444   1.679   0.974   3.636 -0.0797  0.2103 -0.1734
 2376SOL    HW2 7445   1.691   0.850   3.721  0.3261  0.9277  0.8448
 2377SOL     OW 7446   0.520   0.205   4.236  0.2455  0.5829 -0.5365
 2377SOL    HW1 7447   0.485   0.129   4.283  0.4613  1.1310  0.5239
 2377SOL    HW2 7448   0.472   0.205   4.153  0.3701 -0.8113 -0.6330
 2378SOL     OW 7449   4.855   0.840   4.697 -0.5248 -0.5078 -0.4346
 2378SOL    HW1 7450   4.793   0.767   4.708  0.0564 -1.0309 -0.5748
 2378SOL    HW2 7451   4.929   0.817   4.752  0.3813 -0.8495 -1.7491
 2379SOL     OW 7452   4.877   0.500   4.368  0.4360 -0.0718 -0.3859
 2379SOL    HW1 7453   4.802   0.467   4.417  0.9205 -0.2404  0.2549
 2379SOL    HW2 7454   4.950   0.444   4.395  0.9161  0.4621 -0.5522
 2380SOL     OW 7455   2.888   0.526   1.236  0.1236 -0.2535  0.1582
 2380SOL    HW1 7456   2.885   0.511   1.331  0.9863 -1.4555  0.0096
 2380SOL    HW2 7457   2.858   0.617   1.226  2.0012  0.6174  1.7538
 2381SOL     OW 7458   2.928   0.999   4.448 -0.2362  0.5750 -0.0177
 2381SOL    HW1 7459   2.967   0.981   4.362 -1.0731  0.7735 -0.4509
 2381SOL    HW2 7460   2.848   0.947   4.449  0.0664  0.1165  0.8893
 2382SOL     OW 7461   4.151   2.317   4.387  0.1490 -0.3352 -0.1699
 2382SOL    HW1 7462   4.111   2.236   4.418  1.2216 -0.0948  2.0533
 2382SOL    HW2 7463   4.088   2.385   4.412  1.3222 -0.0667  2.3626
 2383SOL     OW 7464   4.514   4.961   5.450 -0.6030  0.2870  0.0257
 2383SOL    HW1 7465   4.491   4.876   5.488  1.8641 -0.1546  0.7276
 2383SOL    HW2 7466   4.539   4.941   5.360  1.8807 -0.1684  0.7270
 2384SOL     OW 7467   4.280   2.039   4.152 -0.0817 -0.1777  0.3071
 2384SOL    HW1 7468   4.360   2.025   4.203  2.1140  2.8324 -1.9441
 2384SOL    HW2 7469   4.311   2.053   4.063 -3.2269  0.5288 -0.8124
 2385SOL     OW 7470   1.467   3.145   4.027  0.4607 -0.3426  0.4190
 2385SOL    HW1 7471   1.451   3.157   3.934  0.3945  0.4938  0.5269
 2385SOL    HW2 7472   1.406   3.075   4.054 -1.7894  1.5045  0.4455
 2386SOL     OW 7473   1.716   4.990   2.039  0.2023 -0.6188  0.1156
 2386SOL    HW1 7474   1.633   5.019   2.001 -0.6801 -1.4924  1.3060
 2386SOL    HW2 7475   1.714   4.895   2.030  1.4665 -0.5976 -0.5854
 2387SOL     OW 7476   3.063   2.953   5.228 -0.3635 -0.1052  0.3707
 2387SOL    HW1 7477   3.136   3.012   5.250 -0.7142  0.7539 -0.6882
 2387SOL    HW2 7478   3.045   2.906   5.309 -0.3431  1.5509  1.3633
 2388SOL     OW 7479   0.086   1.318   1.957  0.0378  0.5915 -0.0854
 2388SOL    HW1 7480   0.114   1.317   2.048  0.5889  0.6388 -0.2520
 2388SOL    HW2 7481   0.105   1.407   1.926  0.0785  0.5069 -0.3095
 2389SOL     OW 7482   3.520   0.034   1.473  0.6764  0.2466  0.8622
 2389SOL    HW1 7483   3.558   0.122   1.470  1.3079 -0.0448 -0.3197
 2389SOL    HW2 7484   3.590  -0.023   1.440 -0.8930 -0.2406 -1.8783
 2390SOL     OW 7485   4.971   4.219   4.067 -0.4934 -0.4472  0.5778
 2390SOL    HW1 7486   4.879   4.243   4.079 -0.6954 -2.3254  4.1621
 2390SOL    HW2 7487   5.014   4.300   4.039 -2.6929  1.4664  2.3164
 2391SOL     OW 7488   0.853   5.098   3.601  0.0582  0.4324  1.0880
 2391SOL    HW1 7489   0.947   5.105   3.620  0.0353 -2.5364  3.0569
 2391SOL    HW2 7490   0.810   5.128   3.681 -0.5104 -0.9029  1.3185
 2392SOL     OW 7491   4.950   1.066   2.180  0.2882  0.4164  0.2835
 2392SOL    HW1 7492   5.026   1.083   2.237 -0.5192  2.6058  0.8027
 2392SOL    HW2 7493   4.970   1.112   2.099  0.9114 -1.7365 -0.8611
 2393SOL     OW 7494   3.336   1.912   4.058 -0.5945  1.1179 -0.0558
 2393SOL    HW1 7495   3.418   1.865   4.072 -0.9189  0.7634  0.6829
 2393SOL    HW2 7496   3.282   1.851   4.007 -0.4377  1.3162 -0.4647
 2394SOL     OW 7497   1.498   5.512   2.501  0.3741  0.4724  0.3180
 2394SOL    HW1 7498   1.591   5.495   2.494  0.4436  1.3036 -1.0277
 2394SOL    HW2 7499   1.488   5.605   2.479 -0.8500  0.2059 -0.3883
 2395SOL     OW 7500   1.524   1.000   1.582  0.1268  0.1230  0.1614
 2395SOL    HW1 7501   1.454   0.969   1.526  1.1033 -0.1391 -0.9515
 2395SOL    HW2 7502   1.504   1.093   1.597 -2.4729 -0.7299  3.0154
 2396SOL     OW 7503   2.023   4.350   1.327 -0.5363  0.2891 -0.1466
 2396SOL    HW1 7504   2.076   4.414   1.374  1.2869 -0.8132 -0.5956
 2396SOL    HW2 7505   2.023   4.381   1.237  0.9018 -0.6257 -0.4937
 2397SOL     OW 7506   2.786   4.847   5.321  0.3396  0.1236 -0.2280
 2397SOL    HW1 7507   2.810   4.754   5.317 -0.6903 -0.1499 -0.3173
 2397SOL    HW2 7508   2.729   4.853   5.397  0.1566  0.6283 -0.4039
 2398SOL     OW 7509   5.329   5.362   2.228  0.7659  0.0826  0.6434
 2398SOL    HW1 7510   5.333   5.456   2.246 -1.3276  0.1958  0.8221
 2398SOL    HW2 7511   5.306   5.323   2.313 -0.2210 -0.3589  0.1919
 2399SOL     OW 7512   5.047   2.428   3.684 -0.1006  0.4134 -0.1645
 2399SOL    HW1 7513   5.125   2.408   3.735 -1.5806 -0.8308  1.7415
 2399SOL    HW2 7514   5.004   2.343   3.672 -0.7464  0.9466 -1.9684
 2400SOL     OW 7515   2.024   0.251   1.788 -0.2436  0.0526  0.1744
 2400SOL    HW1 7516   2.088   0.206   1.734 -1.6605 -0.2386 -1.3524
 2400SOL    HW2 7517   2.066   0.258   1.874  1.5541 -0.6688 -0.5848
 2401SOL     OW 7518   1.367   2.774   3.937  0.0973 -0.2109 -0.5772
 2401SOL    HW1 7519   1.277   2.766   3.969  0.7622 -0.7102  1.3256
 2401SOL    HW2 7520   1.417   2.800   4.014  1.5357  0.4814 -1.6974
 2402SOL     OW 7521   2.334   2.993   0.465 -0.2879 -0.0891  0.2988
 2402SOL    HW1 7522   2.252   2.965   0.425 -0.5939  0.2100  0.7112
 2402SOL    HW2 7523   2.395   3.003   0.391 -0.7271  0.0508 -0.0458
 2403SOL     OW 7524   4.994   4.583   4.231  0.3654 -0.6029  0.1283
 2403SOL    HW1 7525   4.907   4.565   4.267  0.6900  0.2570  1.3949
 2403SOL    HW2 7526   4.990   4.675   4.203  0.5758 -0.8393 -0.7116
 2404SOL     OW 7527   0.090   2.874   1.013  1.0025  0.5108 -0.0688
 2404SOL    HW1 7528   0.069   2.964   1.040 -0.2295  0.4038 -0.6321
 2404SOL    HW2 7529   0.020   2.850   0.953 -0.9250 -2.2308  2.9274
 2405SOL     OW 7530   2.833   1.997   1.167  0.2540 -0.4529 -0.0966
 2405SOL    HW1 7531   2.747   1.958   1.186 -0.3297  0.7875 -0.1119
 2405SOL    HW2 7532   2.815   2.090   1.153  1.2105 -0.5985 -2.7665
 2406SOL     OW 7533   1.260   1.851   2.841  0.6700  0.7274 -0.5891
 2406SOL    HW1 7534   1.300   1.769   2.869  0.6036  0.7708 -0.3645
 2406SOL    HW2 7535   1.304   1.919   2.892  1.3302  0.9200 -1.4003
 2407SOL     OW 7536   2.090   0.675   3.537  0.1200  0.1490  0.1453
 2407SOL    HW1 7537   2.019   0.633   3.490  1.4240 -2.3254  0.2558
 2407SOL    HW2 7538   2.062   0.676   3.628  0.3036 -1.0212  0.2198
 2408SOL     OW 7539   0.918   2.890   4.583 -0.5311  0.0615  0.3222
 2408SOL    HW1 7540   0.979   2.957   4.614 -2.2857  1.0389  1.8571
 2408SOL    HW2 7541   0.927   2.819   4.645 -0.2178 -0.2505 -0.0718
 2409SOL     OW 7542   0.780   1.309   2.907  0.4523  0.0765 -0.4153
 2409SOL    HW1 7543   0.858   1.358   2.934 -0.1225  2.1374 -2.2152
 2409SOL    HW2 7544   0.807   1.262   2.828  0.1930 -0.0841 -0.4100
 2410SOL     OW 7545   3.864   1.763   0.869  0.2320 -0.4843  0.0540
 2410SOL    HW1 7546   3.795   1.794   0.809  0.5912 -0.5718 -0.4126
 2410SOL    HW2 7547   3.887   1.840   0.920  1.0740  0.0300 -1.0571
 2411SOL     OW 7548   1.257   4.982   0.172 -0.2831 -0.1170 -0.8800
 2411SOL    HW1 7549   1.182   4.956   0.225  0.1579 -0.1847 -0.2738
 2411SOL    HW2 7550   1.330   4.930   0.207  0.0897  0.1102 -1.3102
 2412SOL     OW 7551   0.712   1.948   3.847 -0.1586  0.0161 -0.2690
 2412SOL    HW1 7552   0.684   2.027   3.892 -0.5981 -0.9946  1.3176
 2412SOL    HW2 7553   0.637   1.889   3.853 -0.0449 -0.3544 -1.9174
 2413SOL     OW 7554   4.812   5.064   4.219  0.1860  0.3240 -0.2708
 2413SOL    HW1 7555   4.815   5.085   4.126  0.1539  0.6432 -0.1999
 2413SOL    HW2 7556   4.895   5.098   4.254  1.2201 -1.7409 -0.5847
 2414SOL     OW 7557   0.721   2.830   0.559 -0.0556 -0.1668  0.3881
 2414SOL    HW1 7558   0.642   2.805   0.607  0.3227  0.4965  1.3809
 2414SOL    HW2 7559   0.774   2.750   0.558 -1.3380 -1.0827 -1.6181
 2415SOL     OW 7560   4.869   3.968   1.360 -0.1751 -0.2659  0.4027
 2415SOL    HW1 7561   4.964   3.953   1.357 -0.1046  0.3163 -0.9953
 2415SOL    HW2 7562   4.835   3.924   1.282 -0.7261  1.4502 -0.3745
 2416SOL     OW 7563   1.962   3.121   1.566  0.7578 -0.6015 -0.4465
 2416SOL    HW1 7564   1.885   3.177   1.563  1.4142  0.2673 -1.6111
 2416SOL    HW2 7565   2.035   3.179   1.546  1.7023 -1.4632  0.3653
 2417SOL     OW 7566   2.787   2.648   1.318 -0.0809  0.3941 -0.2599
 2417SOL    HW1 7567   2.842   2.571   1.303 -0.4621 -0.1915  1.1824
 2417SOL    HW2 7568   2.848   2.721   1.322  0.6877 -0.2952  1.7720
 2418SOL     OW 7569   3.341   2.749   3.358 -0.5192  0.4605  0.0532
 2418SOL    HW1 7570   3.379   2.735   3.271  0.8457 -0.9649  0.8317
 2418SOL    HW2 7571   3.292   2.669   3.377  0.9436 -0.1829  1.4076
 2419SOL     OW 7572   2.013   4.513   2.395  0.0343  0.1890 -0.2318
 2419SOL    HW1 7573   2.058   4.552   2.470  0.2789 -1.2945  0.4294
 2419SOL    HW2 7574   1.924   4.496   2.427  0.6428 -2.2000  0.4415
 2420SOL     OW 7575   1.210   2.911   5.158 -0.1682 -0.3903 -0.0293
 2420SOL    HW1 7576   1.182   2.902   5.249  2.1570 -0.7957  0.7248
 2420SOL    HW2 7577   1.222   3.005   5.146 -1.1848 -0.2699 -0.1716
 2421SOL     OW 7578   3.260   0.481   3.869 -0.2667  0.3204 -0.1345
 2421SOL    HW1 7579   3.276   0.391   3.843 -3.6093 -0.4464  0.0153
 2421SOL    HW2 7580   3.215   0.474   3.953 -2.8372  1.9256 -1.2709
 2422SOL     OW 7581   2.511   4.126   1.699  0.3538  0.4398  0.4080
 2422SOL    HW1 7582   2.546   4.198   1.751  1.6321  0.0213  0.1749
 2422SOL    HW2 7583   2.511   4.159   1.609  0.0225  0.4804  0.4222
 2423SOL     OW 7584   0.179   5.285   3.036 -0.0539  0.2670 -0.2983
 2423SOL    HW1 7585   0.197   5.255   2.947 -0.1038 -0.0392 -0.2064
 2423SOL    HW2 7586   0.194   5.208   3.090 -0.0856  0.4371 -0.0491
 2424SOL     OW 7587   2.153   3.123   4.007 -0.0282  0.4587  0.2219
 2424SOL    HW1 7588   2.183   3.046   3.958  2.3355  1.0798  0.5689
 2424SOL    HW2 7589   2.100   3.086   4.078  1.2242 -0.9178  0.5121
 2425SOL     OW 7590   4.553   2.844   4.170  0.3157  0.0819  0.3710
 2425SOL    HW1 7591   4.484   2.875   4.110 -1.9576  1.3202  3.3574
 2425SOL    HW2 7592   4.534   2.750   4.181 -0.0843  0.1326  0.1577
 2426SOL     OW 7593   4.468   0.428   2.754  0.9225  0.0648  0.2868
 2426SOL    HW1 7594   4.411   0.382   2.692  1.8778  0.3974 -0.9016
 2426SOL    HW2 7595   4.419   0.506   2.779  0.1105 -0.5817  0.7392
 2427SOL     OW 7596   3.595   0.087   1.077 -0.0696  0.3238 -0.1032
 2427SOL    HW1 7597   3.655   0.114   1.008 -0.6371 -0.4566 -0.9263
 2427SOL    HW2 7598   3.514   0.064   1.030 -0.8121  0.7726  0.9184
 2428SOL     OW 7599   0.788   1.243   2.533  0.3563  0.6754  0.7117
 2428SOL    HW1 7600   0.870   1.223   2.486  0.7808  1.5544  1.0672
 2428SOL    HW2 7601   0.772   1.165   2.586  1.6080  0.9494  1.5302
 2429SOL     OW 7602   0.239   3.933   1.749  0.4423 -0.7096 -0.2801
 2429SOL    HW1 7603   0.154   3.974   1.734  0.1290 -0.4099  1.9738
 2429SOL    HW2 7604   0.222   3.839   1.743 -0.0632 -0.6492  0.1624
 2430SOL     OW 7605   0.680   2.225   1.028  0.2172  0.2716  0.0304
 2430SOL    HW1 7606   0.672   2.305   0.975 -2.1914 -0.2394 -0.4991
 2430SOL    HW2 7607   0.702   2.256   1.116  3.9914  1.1646 -1.0545
 2431SOL     OW 7608   2.900   5.100   4.607 -0.5528 -0.1936  0.5850
 2431SOL    HW1 7609   2.854   5.178   4.637 -0.3435 -0.2417  1.0419
 2431SOL    HW2 7610   2.910   5.046   4.686  0.4873 -0.0824  0.5371
 2432SOL     OW 7611   2.014   1.384   0.819 -0.1431 -0.3036 -0.4929
 2432SOL    HW1 7612   1.969   1.460   0.781  0.5240 -0.3192 -1.3519
 2432SOL    HW2 7613   1.975   1.374   0.906  1.9554  3.0993  1.1015
 2433SOL     OW 7614   5.359   2.362   2.706  0.2952  0.8909 -0.0557
 2433SOL    HW1 7615   5.347   2.431   2.642 -0.8345  0.4151 -0.3757
 2433SOL    HW2 7616   5.454   2.357   2.718  0.3643  3.3641  0.9747
 2434SOL     OW 7617   2.403   3.706   3.262  0.1249  0.0755  0.5941
 2434SOL    HW1 7618   2.440   3.752   3.337  0.4028 -0.6847  0.9429
 2434SOL    HW2 7619   2.476   3.652   3.229  0.1322  0.7230 -0.4948
 2435SOL     OW 7620   0.866   4.422   3.766 -0.5053  0.3513  0.1713
 2435SOL    HW1 7621   0.902   4.511   3.756 -0.4225  0.2914 -0.0583
 2435SOL    HW2 7622   0.855   4.412   3.860  0.1933  0.3290  0.2560
 2436SOL     OW 7623   2.834   1.589   3.250 -0.0117  0.1458 -0.5452
 2436SOL    HW1 7624   2.917   1.596   3.203  1.1514  0.2645  1.3834
 2436SOL    HW2 7625   2.772   1.554   3.186  1.1828  1.2811 -2.4134
 2437SOL     OW 7626   1.763   4.715   3.083 -0.6446  0.5493  0.2074
 2437SOL    HW1 7627   1.751   4.785   3.147  0.2155  1.1183 -0.2323
 2437SOL    HW2 7628   1.809   4.758   3.010  0.3243 -0.5797  0.1306
 2438SOL     OW 7629   3.904   3.924   5.484 -0.1810  0.3500  0.1673
 2438SOL    HW1 7630   3.936   3.921   5.574 -0.8296 -0.3891  0.3759
 2438SOL    HW2 7631   3.930   3.840   5.447  1.0916  1.0872 -0.6952
 2439SOL     OW 7632   0.114   1.392   3.456 -0.4540  0.5343  0.0369
 2439SOL    HW1 7633   0.155   1.478   3.443  0.5107  0.0327 -0.3412
 2439SOL    HW2 7634   0.113   1.381   3.551 -0.8683  1.0960  0.1012
 2440SOL     OW 7635   3.218   2.597   1.262 -0.2528  0.1671 -0.1526
 2440SOL    HW1 7636   3.143   2.558   1.305  0.1833  0.0526  0.5174
 2440SOL    HW2 7637   3.185   2.678   1.224 -0.3310  1.0156  1.6398
 2441SOL     OW 7638   5.127   4.940   4.078  0.2249 -0.5835  0.9904
 2441SOL    HW1 7639   5.177   4.881   4.135  0.8640 -0.2321  0.7985
 2441SOL    HW2 7640   5.157   5.028   4.101  1.0339 -0.4745 -0.3759
 2442SOL     OW 7641   5.298   0.850   3.630  0.3489  0.1237 -0.0826
 2442SOL    HW1 7642   5.303   0.784   3.700 -1.2730 -0.3728 -0.3839
 2442SOL    HW2 7643   5.208   0.845   3.599  0.1803  2.4807 -0.1551
 2443SOL     OW 7644   4.124   2.903   2.707 -0.6762 -0.0247  0.0965
 2443SOL    HW1 7645   4.184   2.887   2.634  0.1179  1.1446  0.4662
 2443SOL    HW2 7646   4.084   2.818   2.723  1.8868 -1.2232  0.7182
 2444SOL     OW 7647   4.711   2.260   2.701  0.2871 -0.1839  0.2918
 2444SOL    HW1 7648   4.766   2.320   2.650  0.6660 -0.8880 -0.1429
 2444SOL    HW2 7649   4.632   2.311   2.720 -0.1443 -0.0774 -1.5297
 2445SOL     OW 7650   3.058   4.376   3.332 -0.3901  0.2842  0.1555
 2445SOL    HW1 7651   3.143   4.407   3.363 -0.2886  1.3667 -1.0848
 2445SOL    HW2 7652   3.070   4.364   3.238 -1.4962  0.0355  0.0296
 2446SOL     OW 7653   1.724   3.074   0.640  0.0324 -0.5011 -0.1820
 2446SOL    HW1 7654   1.777   3.152   0.625  0.2267 -0.4610  0.6656
 2446SOL    HW2 7655   1.693   3.049   0.553  1.5078 -0.5691 -0.7270
 2447SOL     OW 7656   0.169   3.353   2.919  0.0958  0.0830  0.2407
 2447SOL    HW1 7657   0.097   3.290   2.915  1.0250 -1.0383  0.7663
 2447SOL    HW2 7658   0.183   3.369   3.012  2.4817 -2.0701  0.3515
 2448SOL     OW 7659   0.424   3.035   4.703 -0.2681 -0.6532  0.1390
 2448SOL    HW1 7660   0.421   3.098   4.775 -0.5930 -1.0835  0.5103
 2448SOL    HW2 7661   0.401   2.951   4.744 -1.1426 -0.7899 -0.5973
 2449SOL     OW 7662   3.416   3.608   0.536  0.3915  0.2051  0.0158
 2449SOL    HW1 7663   3.440   3.561   0.615  0.0188  0.3186  0.2005
 2449SOL    HW2 7664   3.381   3.692   0.567  1.4902  0.8154 -0.3297
 2450SOL     OW 7665   2.070   0.623   5.069 -0.4877  0.6366 -0.3118
 2450SOL    HW1 7666   2.067   0.531   5.093  0.9070  0.5523 -0.3830
 2450SOL    HW2 7667   2.118   0.665   5.141 -0.6564  1.2179 -0.5338
 2451SOL     OW 7668   2.668   4.641   5.078  0.6924  0.2253  0.3227
 2451SOL    HW1 7669   2.689   4.610   4.990  0.1394 -1.7104  0.8244
 2451SOL    HW2 7670   2.574   4.623   5.088  0.6319  0.9122  1.1293
 2452SOL     OW 7671   3.873   2.223   1.372 -0.1753 -0.1327  0.5549
 2452SOL    HW1 7672   3.914   2.305   1.345  1.5919 -0.5123  1.9106
 2452SOL    HW2 7673   3.914   2.156   1.316  0.0761 -0.3523  0.9932
 2453SOL     OW 7674   4.174   4.505   2.856 -0.3411  0.1038 -0.0094
 2453SOL    HW1 7675   4.115   4.484   2.783 -0.8015 -0.1771  0.4287
 2453SOL    HW2 7676   4.124   4.480   2.934  0.0816  0.5428  0.4090
 2454SOL     OW 7677   4.345   4.399   3.357  0.4962  0.4490 -0.2311
 2454SOL    HW1 7678   4.254   4.412   3.330  0.6560  2.1984  0.0183
 2454SOL    HW2 7679   4.389   4.365   3.278 -0.2476  0.0622 -0.4891
 2455SOL     OW 7680   5.347   3.846   1.439 -0.2015  0.7701  0.6518
 2455SOL    HW1 7681   5.399   3.772   1.469  0.2930  1.2339  0.9633
 2455SOL    HW2 7682   5.332   3.898   1.517 -1.2901  0.5553  0.5915
 2456SOL     OW 7683   2.791   1.129   1.791 -0.1775 -0.2224  0.1335
 2456SOL    HW1 7684   2.818   1.221   1.788  0.2853 -0.3843 -1.2478
 2456SOL    HW2 7685   2.858   1.086   1.844  0.1122  0.0672  0.0048
 2457SOL     OW 7686   2.127   0.902   1.914 -0.4711 -0.3357 -0.4764
 2457SOL    HW1 7687   2.104   0.977   1.858  0.6568 -0.6644 -1.4024
 2457SOL    HW2 7688   2.149   0.942   1.998  1.5864  0.5779 -1.3703
 2458SOL     OW 7689   3.657   0.047   4.494  0.1062  0.4394  0.5530
 2458SOL    HW1 7690   3.732   0.045   4.553  1.5980 -1.7753 -1.2658
 2458SOL    HW2 7691   3.614   0.131   4.513  0.9749  0.2428  4.0912
 2459SOL     OW 7692   2.767   4.081   4.433 -0.1494  0.4781  1.2080
 2459SOL    HW1 7693   2.726   4.077   4.520  0.0052  1.3038  1.3266
 2459SOL    HW2 7694   2.700   4.046   4.374 -0.2861 -0.0146  1.6462
 2460SOL     OW 7695   2.889   0.178   0.136 -0.3894 -0.3789 -0.2641
 2460SOL    HW1 7696   2.978   0.150   0.116  0.4407  0.6340  1.7219
 2460SOL    HW2 7697   2.875   0.255   0.080  0.6948  0.5527  0.6947
 2461SOL     OW 7698   1.138   1.923   2.597  0.6117  0.0649 -0.6161
 2461SOL    HW1 7699   1.192   1.879   2.663  0.1148 -0.8645 -0.8176
 2461SOL    HW2 7700   1.128   2.012   2.631  0.3767 -0.3919  0.5662
 2462SOL     OW 7701   2.468   4.192   4.577  0.5132 -0.3125 -0.4445
 2462SOL    HW1 7702   2.437   4.102   4.574  1.4903 -0.6347 -2.5307
 2462SOL    HW2 7703   2.529   4.195   4.651  0.3345 -1.3010 -0.2482
 2463SOL     OW 7704   3.518   2.573   5.518 -0.0843  0.6111  0.1532
 2463SOL    HW1 7705   3.490   2.590   5.428 -0.0986  0.4024  0.1182
 2463SOL    HW2 7706   3.522   2.477   5.524 -0.4514  0.6134  0.4866
 2464SOL     OW 7707   2.024   0.362   5.121  0.2522 -0.0214 -0.0353
 2464SOL    HW1 7708   1.934   0.384   5.145  0.1539  0.8413 -1.1100
 2464SOL    HW2 7709   2.016   0.280   5.072  0.1073 -0.1550  0.2070
 2465SOL     OW 7710   2.373   5.433   4.791  0.0261  0.0074 -0.1472
 2465SOL    HW1 7711   2.399   5.451   4.700  1.1421  0.5244  0.2463
 2465SOL    HW2 7712   2.387   5.339   4.802  1.6575  0.2396 -0.0025
 2466SOL     OW 7713   4.388   5.406   1.859 -0.8328  0.0680 -0.4178
 2466SOL    HW1 7714   4.433   5.460   1.794 -1.4219  1.7161  0.4942
 2466SOL    HW2 7715   4.392   5.457   1.940 -1.0035 -1.4825  0.6015
 2467SOL     OW 7716   3.180   5.300   4.759  0.0963  0.1941 -0.0887
 2467SOL    HW1 7717   3.126   5.248   4.698 -0.7216  0.5398  0.3319
 2467SOL    HW2 7718   3.168   5.390   4.730 -1.2626  0.5009  1.2745
 2468SOL     OW 7719   2.540   3.293   2.562  0.8787 -0.0014 -0.2161
 2468SOL    HW1 7720   2.610   3.307   2.626  0.8767  0.0896 -0.2334
 2468SOL    HW2 7721   2.569   3.341   2.484  0.7569  0.1095 -0.1937
 2469SOL     OW 7722   0.535   4.238   0.079 -0.4955  0.2211  0.1709
 2469SOL    HW1 7723   0.583   4.293   0.018  1.8164  0.9591  2.4593
 2469SOL    HW2 7724   0.569   4.149   0.065  2.3576  0.8383  2.2617
 2470SOL     OW 7725   1.324   4.409   4.269 -0.1469  0.0965 -0.5884
 2470SOL    HW1 7726   1.354   4.333   4.318 -3.4392 -0.4449  0.8439
 2470SOL    HW2 7727   1.374   4.483   4.305  1.4324 -1.0205 -0.3961
 2471SOL     OW 7728   3.904   4.157   3.947  0.1257 -0.4196 -0.1673
 2471SOL    HW1 7729   3.964   4.126   4.014 -0.0826 -0.7895 -0.1475
 2471SOL    HW2 7730   3.935   4.245   3.925  0.8065 -0.6932 -0.3200
 2472SOL     OW 7731   4.049   4.053   4.157  1.0659  0.1444  0.1850
 2472SOL    HW1 7732   4.099   3.978   4.125 -0.2709 -0.6237 -0.1994
 2472SOL    HW2 7733   4.067   4.055   4.252  2.0672  0.1105  0.0093
 2473SOL     OW 7734   4.117   1.121   0.429  0.5358 -0.5275  0.0465
 2473SOL    HW1 7735   4.070   1.062   0.487  0.3018 -1.0862 -0.6929
 2473SOL    HW2 7736   4.209   1.100   0.443  0.4486 -1.1489 -0.2868
 2474SOL     OW 7737   1.220   4.115   2.233 -0.0222 -0.4317  0.1379
 2474SOL    HW1 7738   1.159   4.188   2.231 -0.1852 -0.5725 -0.0220
 2474SOL    HW2 7739   1.271   4.124   2.153 -1.2027 -1.4843 -0.7628
 2475SOL     OW 7740   1.834   1.619   1.306  0.0729  0.5773  0.0161
 2475SOL    HW1 7741   1.782   1.646   1.230  0.5059  0.7244 -0.2330
 2475SOL    HW2 7742   1.772   1.572   1.362 -0.4251  1.1048 -0.0822
 2476SOL     OW 7743   4.809   0.925   2.728  0.5152  0.2128  0.7848
 2476SOL    HW1 7744   4.825   0.835   2.702 -2.4267 -0.8738  2.2643
 2476SOL    HW2 7745   4.837   0.977   2.653  1.3933 -1.9801 -0.4963
 2477SOL     OW 7746   4.768   3.259   3.854  0.2972 -0.1598  0.3925
 2477SOL    HW1 7747   4.673   3.267   3.851  0.4206  1.7540 -2.7151
 2477SOL    HW2 7748   4.797   3.338   3.900  0.3946  1.2749 -1.9474
 2478SOL     OW 7749   1.474   3.848   3.808  0.4645 -0.1935 -0.7776
 2478SOL    HW1 7750   1.420   3.844   3.729 -1.0497 -0.4751  0.2288
 2478SOL    HW2 7751   1.478   3.757   3.838 -0.4772  0.1439  0.4250
 2479SOL     OW 7752   3.318   3.834   2.722  0.3620 -0.1914  0.2918
 2479SOL    HW1 7753   3.308   3.921   2.761  0.9861  0.3874 -0.7608
 2479SOL    HW2 7754   3.234   3.817   2.679  0.9869  0.9972 -1.5429
 2480SOL     OW 7755   0.875   4.017   0.122 -0.2778  0.2811 -0.4643
 2480SOL    HW1 7756   0.814   4.034   0.050 -1.5959 -1.8290  0.0646
 2480SOL    HW2 7757   0.819   3.982   0.192  1.0729  1.5793  1.3442
 2481SOL     OW 7758   0.208   4.558   0.688  0.4308  0.3314 -0.7712
 2481SOL    HW1 7759   0.227   4.570   0.595  1.7906 -0.1782 -0.5856
 2481SOL    HW2 7760   0.184   4.466   0.696 -1.4017  0.7741 -0.8641
 2482SOL     OW 7761   3.380   3.000   2.634  0.0334 -0.1561  0.0413
 2482SOL    HW1 7762   3.286   2.996   2.616 -0.0744 -1.0471  0.7374
 2482SOL    HW2 7763   3.387   3.049   2.716  0.4724  3.2643 -1.8732
 2483SOL     OW 7764   1.409   3.062   4.363  0.0832  0.3466  0.1929
 2483SOL    HW1 7765   1.438   3.153   4.355  0.0520  0.3490  0.1121
 2483SOL    HW2 7766   1.344   3.051   4.294 -0.5801  0.5256  0.7735
 2484SOL     OW 7767   3.123   0.602   3.112 -0.3351 -0.1885  0.2807
 2484SOL    HW1 7768   3.150   0.672   3.170  1.9715 -0.5102 -0.2921
 2484SOL    HW2 7769   3.170   0.525   3.144 -2.6796 -1.5046  0.7993
 2485SOL     OW 7770   1.671   1.534   4.012  0.2246  0.1299 -0.7714
 2485SOL    HW1 7771   1.637   1.515   4.100  0.7783 -0.4680 -0.6762
 2485SOL    HW2 7772   1.596   1.567   3.963 -0.3413 -0.5795 -0.3897
 2486SOL     OW 7773   1.699   5.102   1.309  0.0917 -0.3997 -0.5007
 2486SOL    HW1 7774   1.728   5.130   1.222 -1.2772 -0.3543 -0.9585
 2486SOL    HW2 7775   1.621   5.154   1.327  0.6996  0.0412  1.0480
 2487SOL     OW 7776   3.804   4.623   5.512  0.4110  0.4908 -1.0529
 2487SOL    HW1 7777   3.845   4.601   5.428 -0.5682 -3.3680 -0.6953
 2487SOL    HW2 7778   3.864   4.589   5.578 -0.2950  0.6580 -0.3091
 2488SOL     OW 7779   5.391   3.528   2.694  0.2849 -0.0623  0.5994
 2488SOL    HW1 7780   5.295   3.530   2.699  0.3451  0.7741  1.8421
 2488SOL    HW2 7781   5.420   3.552   2.782  1.6410  1.2634 -0.1670
 2489SOL     OW 7782   0.742   5.365   5.536 -0.3855  0.2833  0.0270
 2489SOL    HW1 7783   0.705   5.292   5.586  2.2331 -0.4998  1.0387
 2489SOL    HW2 7784   0.761   5.432   5.602  0.0476  0.5996 -0.4093
 2490SOL     OW 7785   4.661   3.068   2.429 -0.0639  0.1055  0.6084
 2490SOL    HW1 7786   4.676   3.084   2.522  1.7043  1.3489  0.1631
 2490SOL    HW2 7787   4.587   3.007   2.426  0.1280 -0.2918  2.8229
 2491SOL     OW 7788   4.097   5.007   1.069 -0.3611 -0.6812  0.2629
 2491SOL    HW1 7789   4.182   5.050   1.058 -0.4553 -0.6742 -0.5607
 2491SOL    HW2 7790   4.044   5.071   1.115  0.2167 -0.8703  1.2085
 2492SOL     OW 7791   4.009   0.544   4.569  0.9061  0.1794  0.5483
 2492SOL    HW1 7792   3.956   0.477   4.526  1.7276 -0.1449  0.0131
 2492SOL    HW2 7793   4.030   0.506   4.654 -1.2412  1.0775  1.5425
 2493SOL     OW 7794   0.651   4.015   5.449  0.1992 -0.2178  0.2210
 2493SOL    HW1 7795   0.586   3.950   5.420  0.1885 -0.4110  0.6684
 2493SOL    HW2 7796   0.622   4.097   5.408  0.5844 -0.6168 -0.8820
 2494SOL     OW 7797   0.474   1.290   4.359 -0.0901  0.0389  0.1938
 2494SOL    HW1 7798   0.567   1.289   4.383  0.3249  1.1736 -1.2314
 2494SOL    HW2 7799   0.465   1.219   4.295 -0.2982 -0.3295  0.6284
 2495SOL     OW 7800   0.483   1.657   2.406  0.3600 -0.8075 -0.8561
 2495SOL    HW1 7801   0.572   1.632   2.431  0.9780  0.5665 -1.5125
 2495SOL    HW2 7802   0.476   1.749   2.432 -0.1908 -0.3466 -2.4842
 2496SOL     OW 7803   0.989   1.007   3.018  0.5689  0.4220 -0.6251
 2496SOL    HW1 7804   0.928   0.944   2.981  0.4993  0.1598 -0.0661
 2496SOL    HW2 7805   1.028   1.050   2.942  0.5928 -0.2718 -1.0087
 2497SOL     OW 7806   3.061   1.494   0.702  0.1131  0.3271 -0.3398
 2497SOL    HW1 7807   3.102   1.580   0.701  0.5831  0.1018 -1.3617
 2497SOL    HW2 7808   3.118   1.442   0.760  0.1322  0.5489 -0.1549
 2498SOL     OW 7809   3.927   1.748   2.958 -0.2684  0.4698  0.1375
 2498SOL    HW1 7810   4.002   1.783   3.006 -1.1676 -0.4324  2.3105
 2498SOL    HW2 7811   3.899   1.820   2.901  0.8296  1.6130  0.9931
 2499SOL     OW 7812   1.174   2.167   5.334 -0.4605  0.2843 -0.2599
 2499SOL    HW1 7813   1.186   2.261   5.348 -1.6121  0.1060  2.4389
 2499SOL    HW2 7814   1.242   2.144   5.270  0.9104  2.6431  0.2288
 2500SOL     OW 7815   4.234   3.004   3.189 -0.5874  0.3465 -0.1547
 2500SOL    HW1 7816   4.283   2.927   3.161  0.2822  0.5812  0.6818
 2500SOL    HW2 7817   4.175   3.023   3.116 -0.6282 -0.9445 -0.4782
 2501SOL     OW 7818   5.064   1.660   3.326  0.1708 -0.2461  0.9420
 2501SOL    HW1 7819   5.011   1.664   3.406 -1.9783  0.1063 -0.4291
 2501SOL    HW2 7820   5.089   1.750   3.308 -0.7292 -0.1086  0.3502
 2502SOL     OW 7821   0.341   1.407   2.342 -0.4084 -0.6328  0.0001
 2502SOL    HW1 7822   0.405   1.451   2.398 -0.7340 -0.4222  0.2060
 2502SOL    HW2 7823   0.259   1.454   2.357 -1.1981 -2.3826  1.5872
 2503SOL     OW 7824   3.579   3.821   2.064 -0.0262 -0.2251 -0.8568
 2503SOL    HW1 7825   3.553   3.847   2.152  2.4014 -1.8991  0.5006
 2503SOL    HW2 7826   3.521   3.869   2.005 -2.3850  0.2130  1.6605
 2504SOL     OW 7827   2.252   5.210   3.938 -0.0655 -0.1413  0.0373
 2504SOL    HW1 7828   2.331   5.166   3.970 -1.2258 -1.0835  1.7900
 2504SOL    HW2 7829   2.187   5.140   3.929 -0.9983  0.7423 -0.4291
 2505SOL     OW 7830   0.136   1.959   2.577 -0.1112  0.1509 -0.4432
 2505SOL    HW1 7831   0.117   1.878   2.531  0.8201 -1.4534  1.8554
 2505SOL    HW2 7832   0.050   2.000   2.590 -0.7821 -1.2785 -0.2264
 2506SOL     OW 7833   3.251   2.119   0.969 -0.0941  0.4846  0.2233
 2506SOL    HW1 7834   3.256   2.203   1.015  0.3195  0.4126  0.3101
 2506SOL    HW2 7835   3.233   2.143   0.878 -0.5277  0.6426  0.3488
 2507SOL     OW 7836   0.827   5.316   3.394 -0.0844 -0.1660  0.1073
 2507SOL    HW1 7837   0.919   5.340   3.387  0.3817 -1.8309  0.2739
 2507SOL    HW2 7838   0.821   5.265   3.475 -0.9128 -1.0836 -0.5154
 2508SOL     OW 7839   1.044   5.148   5.155  0.5168 -0.3667 -0.0259
 2508SOL    HW1 7840   1.119   5.091   5.135  1.1805 -0.0746  1.5080
 2508SOL    HW2 7841   0.987   5.140   5.078  0.8767 -2.6094 -0.1316
 2509SOL     OW 7842   5.105   3.356   0.260 -0.4494  0.2969 -0.3258
 2509SOL    HW1 7843   5.014   3.377   0.282 -0.8113  0.4428 -1.8357
 2509SOL    HW2 7844   5.098   3.291   0.190  0.6354 -0.9695  0.7150
 2510SOL     OW 7845   5.070   1.356   5.382  0.5771 -0.0216  0.0544
 2510SOL    HW1 7846   5.036   1.349   5.293  0.3925  0.7519  0.0583
 2510SOL    HW2 7847   4.997   1.328   5.438  0.9764 -1.3774 -0.0520
 2511SOL     OW 7848   3.956   0.408   3.608 -0.4554 -0.5076  0.0644
 2511SOL    HW1 7849   4.043   0.407   3.647 -0.4951 -0.7733  0.1490
 2511SOL    HW2 7850   3.970   0.434   3.517 -0.2895 -0.5446  0.0801
 2512SOL     OW 7851   5.338   1.787   0.338  0.2784 -0.4338  0.4436
 2512SOL    HW1 7852   5.306   1.706   0.300 -0.5702 -0.0434  0.3014
 2512SOL    HW2 7853   5.328   1.852   0.268  3.6071 -0.7067 -0.4916
 2513SOL     OW 7854   2.054   4.524   0.277 -0.2959 -0.2828  0.0871
 2513SOL    HW1 7855   1.972   4.544   0.231  0.5287 -1.3849 -2.0088
 2513SOL    HW2 7856   2.084   4.609   0.309 -0.8051  0.6336 -1.6970
 2514SOL     OW 7857   3.986   1.983   5.273  0.1867 -0.0958 -0.1377
 2514SOL    HW1 7858   3.892   1.994   5.259  0.6734  1.1595 -3.3722
 2514SOL    HW2 7859   4.012   2.064   5.317  0.0630  0.5854 -1.2919
 2515SOL     OW 7860   2.887   0.936   0.215 -0.2558 -0.7791  0.1600
 2515SOL    HW1 7861   2.903   0.953   0.308  0.9160 -0.3087 -0.1101
 2515SOL    HW2 7862   2.974   0.925   0.178 -0.6070  0.8357 -1.2238
 2516SOL     OW 7863   5.483   3.635   1.495  0.5708  0.0811 -0.0825
 2516SOL    HW1 7864   5.566   3.665   1.457  0.9601 -1.0356 -0.1523
 2516SOL    HW2 7865   5.491   3.540   1.497 -0.7334 -0.0473 -0.1252
 2517SOL     OW 7866   2.502   4.067   2.646  0.2496 -0.8019 -0.5247
 2517SOL    HW1 7867   2.452   4.046   2.724 -1.3983  0.8951 -1.0496
 2517SOL    HW2 7868   2.444   4.045   2.573  0.4519  0.7104 -1.1800
 2518SOL     OW 7869   4.674   0.194   5.010  0.2521  0.3089 -1.0213
 2518SOL    HW1 7870   4.692   0.141   5.087 -0.2531  0.9402 -0.4513
 2518SOL    HW2 7871   4.639   0.133   4.946  0.4285 -0.1766 -0.6625
 2519SOL     OW 7872   3.919   1.792   0.296  0.4767 -0.5663 -0.1163
 2519SOL    HW1 7873   3.952   1.877   0.265 -1.5550 -0.4089 -2.1450
 2519SOL    HW2 7874   3.959   1.729   0.236 -0.0982 -0.7329 -0.3306
 2520SOL     OW 7875   5.397   2.635   2.615  0.3634  0.5388  0.0454
 2520SOL    HW1 7876   5.436   2.720   2.595 -1.0793  1.8828  2.4176
 2520SOL    HW2 7877   5.392   2.634   2.711 -3.0875 -0.5490 -0.0074
 2521SOL     OW 7878   1.741   0.990   1.094 -0.5221 -0.1986  0.0401
 2521SOL    HW1 7879   1.688   0.980   1.173 -1.2621  3.0182  0.0877
 2521SOL    HW2 7880   1.793   0.910   1.089 -3.9029 -2.6793  1.0806
 2522SOL     OW 7881   4.148   4.711   4.692  0.8225 -0.4209 -0.1888
 2522SOL    HW1 7882   4.088   4.685   4.622  0.2067  0.3146  0.0521
 2522SOL    HW2 7883   4.129   4.804   4.706  1.1780 -0.4825  0.7281
 2523SOL     OW 7884   4.376   1.906   1.780 -0.1666 -0.2199 -0.4608
 2523SOL    HW1 7885   4.469   1.899   1.803 -0.0508 -0.1571 -0.9027
 2523SOL    HW2 7886   4.346   1.815   1.776 -1.3170 -0.3003  4.3120
 2524SOL     OW 7887   4.444   5.030   2.472  0.0602  0.0088  0.1120
 2524SOL    HW1 7888   4.398   5.103   2.431 -1.4424 -1.3186 -0.6875
 2524SOL    HW2 7889   4.494   5.070   2.544 -1.6314  1.6537  0.4513
 2525SOL     OW 7890   1.297   5.510   5.085  0.0527 -1.0141  0.6092
 2525SOL    HW1 7891   1.323   5.481   4.997 -0.2496  0.4447  0.0002
 2525SOL    HW2 7892   1.303   5.431   5.139  1.6206 -1.6615 -0.4095
 2526SOL     OW 7893   2.082   3.576   0.214 -0.3345 -0.5463  0.3196
 2526SOL    HW1 7894   2.066   3.516   0.288 -0.6744 -0.5316  0.2578
 2526SOL    HW2 7895   2.122   3.653   0.255 -0.5138 -0.5412  0.4864
 2527SOL     OW 7896   2.993   2.894   3.692  0.5759  0.0554  0.2557
 2527SOL    HW1 7897   2.964   2.815   3.738 -0.0041 -0.2129 -0.5401
 2527SOL    HW2 7898   2.913   2.930   3.653  0.7766  1.2256  0.8802
 2528SOL     OW 7899   4.421   3.176   2.239  0.2758  0.4085  0.0510
 2528SOL    HW1 7900   4.483   3.116   2.198 -0.2612  1.1836 -2.0415
 2528SOL    HW2 7901   4.439   3.261   2.198 -2.5549  0.5311 -1.2080
 2529SOL     OW 7902   3.218   3.381   5.358 -0.3230 -0.1583  0.9946
 2529SOL    HW1 7903   3.167   3.407   5.281  2.2870  0.0857 -0.7887
 2529SOL    HW2 7904   3.250   3.464   5.393 -0.7006 -0.3404  1.7881
 2530SOL     OW 7905   0.558   1.182   2.370  0.4993  0.1046 -0.0219
 2530SOL    HW1 7906   0.638   1.193   2.421  0.4383 -0.7381  0.2616
 2530SOL    HW2 7907   0.589   1.157   2.283  0.5708  0.6192 -0.1459
 2531SOL     OW 7908   4.964   5.453   3.198 -0.3426  0.5959  0.1851
 2531SOL    HW1 7909   4.921   5.405   3.268  2.3561 -0.1763  1.4535
 2531SOL    HW2 7910   4.932   5.543   3.207 -1.6273  0.0797  1.0379
 2532SOL     OW 7911   3.892   4.325   0.383 -0.2324 -0.2895  0.6958
 2532SOL    HW1 7912   3.953   4.285   0.445 -0.5550  0.1792  1.3148
 2532SOL    HW2 7913   3.892   4.418   0.405  0.0027 -0.0333 -0.3046
 2533SOL     OW 7914   1.983   1.406   0.286  0.7003 -0.1463 -0.2468
 2533SOL    HW1 7915   1.890   1.407   0.310  0.5240 -0.4370 -0.8803
 2533SOL    HW2 7916   1.985   1.443   0.197  1.3691  1.2481  0.3132
 2534SOL     OW 7917   5.233   3.125   0.944  0.5094 -0.0939 -0.3437
 2534SOL    HW1 7918   5.262   3.034   0.936 -0.2255 -0.8020  3.1707
 2534SOL    HW2 7919   5.266   3.154   1.029 -1.0051  2.2193 -0.4344
 2535SOL     OW 7920   1.633   1.736   2.704 -0.2674 -0.3750 -0.2561
 2535SOL    HW1 7921   1.684   1.813   2.725 -2.3581  1.1520 -0.4442
 2535SOL    HW2 7922   1.664   1.669   2.765 -0.2256  1.3914  1.7843
 2536SOL     OW 7923   3.856   1.342   1.460 -0.5694  0.4622 -0.6057
 2536SOL    HW1 7924   3.844   1.368   1.369  0.8402 -1.9181 -1.5578
 2536SOL    HW2 7925   3.836   1.249   1.462  0.8137  0.1401  1.2044
 2537SOL     OW 7926   0.540   3.324   2.224  0.2711  0.2395  0.5754
 2537SOL    HW1 7927   0.518   3.344   2.315  0.4210  0.4092  0.5767
 2537SOL    HW2 7928   0.574   3.407   2.189  2.3605 -0.3640  1.0144
 2538SOL     OW 7929   2.650   5.317   3.839 -0.3445 -0.6120  0.6997
 2538SOL    HW1 7930   2.719   5.271   3.791 -0.2185 -0.3639  0.6412
 2538SOL    HW2 7931   2.579   5.326   3.776  0.9228  2.4190 -0.4906
 2539SOL     OW 7932   0.423   4.514   0.986 -0.8183  0.4275  0.5941
 2539SOL    HW1 7933   0.411   4.551   1.073  2.1406  1.4576  0.6978
 2539SOL    HW2 7934   0.335   4.509   0.949 -2.1686 -0.0985  3.6172
 2540SOL     OW 7935   1.059   4.981   1.033  0.0837  0.7026 -0.5005
 2540SOL    HW1 7936   1.052   5.009   0.942  0.4748  0.0249 -0.7459
 2540SOL    HW2 7937   0.974   5.005   1.072 -0.0615  1.0537 -1.0166
 2541SOL     OW 7938   3.611   4.217   4.151 -0.0365  0.1348  0.3022
 2541SOL    HW1 7939   3.677   4.148   4.162  0.4040  0.3477 -0.8123
 2541SOL    HW2 7940   3.651   4.295   4.190 -0.6412 -0.2849  1.7938
 2542SOL     OW 7941   4.086   0.846   4.036  0.2284  0.2996 -0.0682
 2542SOL    HW1 7942   4.037   0.821   3.957  0.1083  0.6966 -0.1252
 2542SOL    HW2 7943   4.080   0.942   4.038  0.0916  0.2828  0.5120
 2543SOL     OW 7944   1.758   1.216   0.619 -0.5833  0.0272 -0.5836
 2543SOL    HW1 7945   1.845   1.176   0.620  0.1582  1.5273  1.4295
 2543SOL    HW2 7946   1.704   1.158   0.671 -0.0530  0.4851  0.5096
 2544SOL     OW 7947   0.480   2.462   1.905 -0.1498  0.2360  0.0882
 2544SOL    HW1 7948   0.404   2.519   1.911 -1.3868 -1.3785  0.2649
 2544SOL    HW2 7949   0.463   2.391   1.968  0.5845 -1.1914 -1.2458
 2545SOL     OW 7950   1.469   5.060   1.933  0.5101  0.8418  0.3707
 2545SOL    HW1 7951   1.415   5.045   2.010  1.6355 -0.7757  0.8935
 2545SOL    HW2 7952   1.416   5.117   1.877 -2.0810 -1.2389  0.5315
 2546SOL     OW 7953   2.948   0.359   5.466 -0.1697 -0.2250  0.1715
 2546SOL    HW1 7954   2.869   0.337   5.416  0.5842 -0.0097 -1.1419
 2546SOL    HW2 7955   3.020   0.342   5.406  0.6482  2.5117  0.2609
 2547SOL     OW 7956   0.191   3.646   1.725  0.3714 -0.0864 -0.4197
 2547SOL    HW1 7957   0.269   3.596   1.751  1.1443 -0.2732 -2.8200
 2547SOL    HW2 7958   0.167   3.609   1.640 -1.2107  1.2535 -0.5878
 2548SOL     OW 7959   0.500   0.024   2.309 -0.2497  0.2272  0.5570
 2548SOL    HW1 7960   0.408  -0.000   2.320 -0.8392  2.8212  2.2999
 2548SOL    HW2 7961   0.511   0.032   2.214 -1.1440 -2.2197  0.1591
 2549SOL     OW 7962   2.121   0.900   4.948  0.2317 -0.2253 -0.7573
 2549SOL    HW1 7963   2.097   0.809   4.960  1.5804 -0.4106  0.8317
 2549SOL    HW2 7964   2.041   0.941   4.913 -0.7200 -1.7806 -0.5151
 2550SOL     OW 7965   4.706   1.748   2.864  0.2447 -0.0683  0.4908
 2550SOL    HW1 7966   4.749   1.832   2.877  0.3352 -0.0847  0.3086
 2550SOL    HW2 7967   4.746   1.690   2.929 -1.5895  0.6373  2.3224
 2551SOL     OW 7968   1.123   1.192   3.793  0.3789 -0.0486 -0.3468
 2551SOL    HW1 7969   1.184   1.121   3.775 -0.4681 -0.4053 -2.0746
 2551SOL    HW2 7970   1.127   1.247   3.715 -0.0528  1.0071  0.3497
 2552SOL     OW 7971   1.618   1.564   4.854 -0.3166 -0.6913  0.5645
 2552SOL    HW1 7972   1.660   1.615   4.924 -0.8754  0.1932  0.2853
 2552SOL    HW2 7973   1.689   1.516   4.813  0.2542 -0.0851  0.8155
 2553SOL     OW 7974   2.385   3.016   0.931 -0.3207  0.0429 -0.1218
 2553SOL    HW1 7975   2.339   3.073   0.869  0.6176  1.0445  0.0606
 2553SOL    HW2 7976   2.321   2.950   0.956 -1.2298  0.6228 -0.8762
 2554SOL     OW 7977   3.256   0.359   1.767 -0.2914 -0.4489  0.1141
 2554SOL    HW1 7978   3.307   0.416   1.824 -0.0203  1.6124 -1.9814
 2554SOL    HW2 7979   3.177   0.338   1.817 -0.8567  2.6382  0.7284
 2555SOL     OW 7980   0.930   5.558   2.494  0.1379  0.3552 -0.2282
 2555SOL    HW1 7981   0.980   5.578   2.415 -0.2700 -1.9261 -1.1250
 2555SOL    HW2 7982   0.843   5.596   2.478 -0.9118 -2.5514 -2.2908
 2556SOL     OW 7983   5.149   2.770   4.774  0.1454  0.4953 -0.0354
 2556SOL    HW1 7984   5.142   2.822   4.853 -0.2781 -0.5701  0.6464
 2556SOL    HW2 7985   5.161   2.834   4.704 -0.2048  1.4857  0.7925
 2557SOL     OW 7986   0.496   2.732   0.712  0.4391  0.2764 -0.0370
 2557SOL    HW1 7987   0.421   2.761   0.764 -0.2532 -0.1637 -0.7511
 2557SOL    HW2 7988   0.456   2.687   0.637  1.4481 -1.0654  0.2032
 2558SOL     OW 7989   0.697   2.055   5.311  0.3059  0.0524  0.6024
 2558SOL    HW1 7990   0.773   2.085   5.261  0.5099  1.1158  1.5114
 2558SOL    HW2 7991   0.624   2.060   5.249  0.6285  0.9250  0.2753
 2559SOL     OW 7992   5.527   2.480   0.329  0.1732 -0.2959  0.0521
 2559SOL    HW1 7993   5.447   2.532   0.340  0.3413  0.1156 -0.5857
 2559SOL    HW2 7994   5.515   2.435   0.245  1.3660  1.1957 -0.9839
 2560SOL     OW 7995   2.049   4.920   0.081  0.0219 -0.5519 -0.0147
 2560SOL    HW1 7996   2.050   4.999   0.027  0.7904 -1.1462 -0.9138
 2560SOL    HW2 7997   2.029   4.849   0.019  3.0279 -1.5458 -0.0181
 2561SOL     OW 7998   5.429   5.502   1.339 -0.1739  0.1492 -0.1714
 2561SOL    HW1 7999   5.487   5.569   1.304 -0.9808  0.5855 -0.7076
 2561SOL    HW2 8000   5.477   5.465   1.414 -0.0517  1.9168  0.6763
 2562SOL     OW 8001   4.451   4.773   1.184  0.6192  0.5647  0.3657
 2562SOL    HW1 8002   4.469   4.841   1.250 -1.2099  0.6097  0.8908
 2562SOL    HW2 8003   4.384   4.718   1.225  0.8950 -0.5885 -0.6988
 2563SOL     OW 8004   3.067   4.578   5.193 -0.6398 -0.0078  0.0464
 2563SOL    HW1 8005   2.979   4.570   5.231 -0.2193  0.6553  1.2186
 2563SOL    HW2 8006   3.126   4.557   5.266  0.1837  0.0583 -0.5892
 2564SOL     OW 8007   0.744   3.042   4.790 -1.1300  0.3082 -0.3748
 2564SOL    HW1 8008   0.695   3.027   4.871  0.2423 -1.7642  0.1601
 2564SOL    HW2 8009   0.776   2.955   4.766  0.6661  1.2985 -1.7392
 2565SOL     OW 8010   5.118   4.104   2.103  0.0261 -0.1902 -0.1284
 2565SOL    HW1 8011   5.174   4.097   2.026  0.9131  0.6525  0.4121
 2565SOL    HW2 8012   5.070   4.186   2.090  2.0836  1.3620  1.3633
 2566SOL     OW 8013   2.752   2.740   3.271 -0.2390  0.1294  0.0176
 2566SOL    HW1 8014   2.800   2.744   3.353 -1.6369 -3.0397  1.1264
 2566SOL    HW2 8015   2.818   2.715   3.206  0.3981  0.1619  0.6401
 2567SOL     OW 8016   0.661   0.160   5.113  0.3067  0.3680  0.4628
 2567SOL    HW1 8017   0.647   0.092   5.046  0.1115  1.4111 -0.5943
 2567SOL    HW2 8018   0.755   0.156   5.131  0.1264 -0.9186  1.2476
 2568SOL     OW 8019   3.728   5.473   0.769  0.4602 -0.2938  0.3993
 2568SOL    HW1 8020   3.687   5.436   0.848  0.8979  0.2595  0.8991
 2568SOL    HW2 8021   3.654   5.502   0.716  0.1680  0.0339  0.9644
 2569SOL     OW 8022   1.960   2.208   4.500 -0.3899 -0.4983 -0.3689
 2569SOL    HW1 8023   2.011   2.274   4.454 -0.9994  1.6472  1.8751
 2569SOL    HW2 8024   2.024   2.142   4.527  0.8681  1.0193  0.4992
 2570SOL     OW 8025   3.156   4.468   4.317  0.7547  0.6336  0.3071
 2570SOL    HW1 8026   3.130   4.471   4.409  0.7061  0.2219  0.3087
 2570SOL    HW2 8027   3.246   4.436   4.319  0.1563 -1.1274  0.1127
 2571SOL     OW 8028   3.779   0.034   1.651  0.2168 -0.4419  0.3011
 2571SOL    HW1 8029   3.738  -0.042   1.610  0.8512 -0.1949 -0.8408
 2571SOL    HW2 8030   3.872   0.013   1.652  0.1797 -0.6910  2.2046
 2572SOL     OW 8031   4.180   3.161   4.175 -0.3726  0.4552 -0.0150
 2572SOL    HW1 8032   4.167   3.080   4.225  1.4563 -0.1964 -0.5034
 2572SOL    HW2 8033   4.095   3.176   4.132 -1.4053  0.0244  1.7867
 2573SOL     OW 8034   0.506   3.644   1.268 -0.7320 -0.3177  0.2547
 2573SOL    HW1 8035   0.445   3.696   1.215 -0.7343  0.4804  1.0109
 2573SOL    HW2 8036   0.542   3.707   1.330  0.3427 -0.9364  0.2740
 2574SOL     OW 8037   4.519   4.800   3.983 -0.5463  0.0815 -0.0437
 2574SOL    HW1 8038   4.471   4.841   4.055 -0.6830  0.8473 -0.5477
 2574SOL    HW2 8039   4.528   4.709   4.008 -2.1117 -0.0459  0.1606
 2575SOL     OW 8040   1.728   4.369   3.688  0.1501 -0.4751  0.5769
 2575SOL    HW1 8041   1.735   4.351   3.594 -2.2469 -1.8475  0.5932
 2575SOL    HW2 8042   1.708   4.462   3.693  0.2751 -0.3928 -0.2642
 2576SOL     OW 8043   0.299   0.645   0.595  0.4096 -0.1363  0.3913
 2576SOL    HW1 8044   0.294   0.573   0.658  0.1334  1.3083  2.0887
 2576SOL    HW2 8045   0.372   0.698   0.625  0.8450  0.1253 -1.0567
 2577SOL     OW 8046   2.084   4.377   3.662 -0.7075  0.0523  0.4111
 2577SOL    HW1 8047   2.056   4.393   3.752 -1.5338 -2.1225  0.5998
 2577SOL    HW2 8048   2.012   4.327   3.623  0.3772 -0.5156 -0.9287
 2578SOL     OW 8049   1.607   2.179   0.206  0.2148 -0.0634  0.2238
 2578SOL    HW1 8050   1.526   2.145   0.244  1.0483 -1.1845  1.0630
 2578SOL    HW2 8051   1.597   2.166   0.112 -1.0249  0.8435  0.2037
 2579SOL     OW 8052   2.167   4.026   1.277  0.4187  0.2387 -0.1038
 2579SOL    HW1 8053   2.220   4.084   1.331  1.7847 -1.3662  0.3447
 2579SOL    HW2 8054   2.226   3.955   1.252 -1.4122 -1.4708  0.1683
 2580SOL     OW 8055   3.550   1.275   1.364 -0.4696  0.0427 -0.7575
 2580SOL    HW1 8056   3.550   1.315   1.451  0.5116  0.3849 -0.8986
 2580SOL    HW2 8057   3.604   1.333   1.311 -1.4644  0.1054 -1.7324
 2581SOL     OW 8058   4.768   3.130   4.892  0.6652  0.4676  0.1010
 2581SOL    HW1 8059   4.719   3.212   4.899 -1.0446 -0.3397 -1.4445
 2581SOL    HW2 8060   4.769   3.112   4.798  2.4563 -0.4731  0.2640
 2582SOL     OW 8061   4.705   4.277   5.307  0.0090  0.1161 -0.1285
 2582SOL    HW1 8062   4.696   4.200   5.252  0.4207  0.9355 -1.3678
 2582SOL    HW2 8063   4.614   4.303   5.327 -0.1583  0.2228 -1.0103
 2583SOL     OW 8064   0.787   0.358   2.766 -0.4147  0.0168 -0.4785
 2583SOL    HW1 8065   0.760   0.266   2.765  1.8984 -0.7488  0.4352
 2583SOL    HW2 8066   0.836   0.369   2.684  0.8135 -0.1191  0.2066
 2584SOL     OW 8067   2.944   4.730   3.384  0.1602 -0.4364  0.5147
 2584SOL    HW1 8068   2.875   4.689   3.331 -0.6372  1.1540  0.2413
 2584SOL    HW2 8069   3.025   4.708   3.338 -0.2553 -1.3899  0.2002
 2585SOL     OW 8070   4.928   5.099   1.226  0.3951  0.1582 -0.1479
 2585SOL    HW1 8071   4.880   5.136   1.152 -2.6068 -1.3547  0.8960
 2585SOL    HW2 8072   4.942   5.007   1.201 -1.1499 -0.5210  1.2930
 2586SOL     OW 8073   2.331   5.364   2.202  0.7589 -0.8000  0.4095
 2586SOL    HW1 8074   2.259   5.313   2.237 -0.4518 -0.5760 -1.5795
 2586SOL    HW2 8075   2.316   5.365   2.108  2.1887  1.0316  0.1391
 2587SOL     OW 8076   0.938   0.609   2.259 -0.2256  0.6185  0.5003
 2587SOL    HW1 8077   0.924   0.601   2.165  0.1388 -0.7941  0.5369
 2587SOL    HW2 8078   0.900   0.693   2.283  0.9394  1.6514 -1.1322
 2588SOL     OW 8079   2.333   0.602   4.904  0.3406 -0.3037  0.9729
 2588SOL    HW1 8080   2.321   0.527   4.961 -1.5032  0.2178  1.3508
 2588SOL    HW2 8081   2.421   0.592   4.868  0.5771 -1.9812  1.9373
 2589SOL     OW 8082   4.247   2.821   4.822 -0.4766  0.3367 -0.3319
 2589SOL    HW1 8083   4.336   2.785   4.821 -1.0574 -1.1088 -1.1462
 2589SOL    HW2 8084   4.233   2.845   4.914  0.3371 -0.4847  0.0230
 2590SOL     OW 8085   5.403   2.840   0.905  0.6642  0.3910  0.1091
 2590SOL    HW1 8086   5.445   2.847   0.819 -0.0915  0.8992 -0.2267
 2590SOL    HW2 8087   5.337   2.772   0.893  1.7518 -0.8392  0.8026
 2591SOL     OW 8088   2.144   0.541   2.107  0.2059  0.2726  0.0130
 2591SOL    HW1 8089   2.114   0.594   2.181  0.3523 -2.4370  2.1503
 2591SOL    HW2 8090   2.240   0.540   2.116  0.1060 -2.9211  2.0764
 2592SOL     OW 8091   5.295   1.339   2.187 -0.1261 -0.3767  0.4813
 2592SOL    HW1 8092   5.301   1.433   2.174  0.6679 -0.3659  0.8862
 2592SOL    HW2 8093   5.238   1.329   2.263  0.2688 -0.2054  0.7972
 2593SOL     OW 8094   1.846   4.095   1.435 -0.4963  0.2095 -0.5413
 2593SOL    HW1 8095   1.870   4.065   1.523 -1.8214 -1.0912 -0.5958
 2593SOL    HW2 8096   1.927   4.132   1.400  0.2213  0.1523  0.9773
 2594SOL     OW 8097   0.475   0.910   2.424 -0.1928 -0.5252 -0.4262
 2594SOL    HW1 8098   0.396   0.898   2.477  2.1175  0.2284  3.6371
 2594SOL    HW2 8099   0.484   1.005   2.416  0.5816 -0.5823 -0.3040
 2595SOL     OW 8100   4.906   0.010   4.552  0.2757 -0.2241 -0.4732
 2595SOL    HW1 8101   4.812   0.015   4.569 -0.1467 -2.4726 -1.8340
 2595SOL    HW2 8102   4.946   0.008   4.639 -0.6712  3.0640  0.1739
 2596SOL     OW 8103   4.795   4.208   4.915 -0.0226 -0.3812  0.6273
 2596SOL    HW1 8104   4.836   4.133   4.873 -1.9168 -1.6283  0.8981
 2596SOL    HW2 8105   4.838   4.284   4.876  1.9205 -1.5683  0.3126
 2597SOL     OW 8106   0.640   3.807   1.955 -0.2981 -0.5215  0.6438
 2597SOL    HW1 8107   0.653   3.766   1.869 -1.4815 -0.2609  0.3122
 2597SOL    HW2 8108   0.586   3.884   1.937  1.8332  1.2251  1.2717
 2598SOL     OW 8109   1.121   3.236   4.468 -0.1147  0.2042 -0.2618
 2598SOL    HW1 8110   1.158   3.322   4.488  0.7308 -0.3307  0.5721
 2598SOL    HW2 8111   1.103   3.197   4.553 -1.4136 -0.0743 -0.6409
 2599SOL     OW 8112   4.607   0.033   4.562  0.8613 -0.4706 -0.0334
 2599SOL    HW1 8113   4.606  -0.018   4.481 -1.5258 -1.9601  0.8222
 2599SOL    HW2 8114   4.553   0.110   4.543 -1.0592 -1.6200  0.5299
 2600SOL     OW 8115   4.563   5.547   3.405 -0.4719  0.0394  0.2736
 2600SOL    HW1 8116   4.506   5.523   3.478 -0.6516 -2.6016 -0.6294
 2600SOL    HW2 8117   4.647   5.565   3.445 -0.1636 -2.8335  1.0998
 2601SOL     OW 8118   3.344   3.180   0.711  0.2780 -0.0232 -0.4611
 2601SOL    HW1 8119   3.261   3.206   0.751 -0.6299 -2.1822 -0.7639
 2601SOL    HW2 8120   3.399   3.258   0.716 -1.0725  0.9000  1.5607
 2602SOL     OW 8121   2.621   2.326   3.677 -0.7891 -0.5761 -0.3736
 2602SOL    HW1 8122   2.580   2.395   3.729  0.7187  0.4325 -0.4613
 2602SOL    HW2 8123   2.607   2.353   3.586  1.8889  0.9855 -0.4107
 2603SOL     OW 8124   3.120   0.279   5.274 -0.2532  0.1460  0.3796
 2603SOL    HW1 8125   3.104   0.302   5.183  1.1861  0.0626  0.0864
 2603SOL    HW2 8126   3.186   0.209   5.271  2.2842  2.3118  1.5320
 2604SOL     OW 8127   2.540   4.520   2.222  0.6836  0.6409  0.2144
 2604SOL    HW1 8128   2.476   4.449   2.216 -0.0791  1.3369 -0.1316
 2604SOL    HW2 8129   2.496   4.588   2.272  1.8174  0.4610  1.5109
 2605SOL     OW 8130   3.521   2.755   0.550  0.2284 -0.3273 -0.5421
 2605SOL    HW1 8131   3.588   2.776   0.486  0.2917 -0.5406 -0.5446
 2605SOL    HW2 8132   3.440   2.791   0.512  0.3130 -0.2051 -0.6085
 2606SOL     OW 8133   1.161   5.155   3.231  0.6543  0.6362  0.3794
 2606SOL    HW1 8134   1.132   5.243   3.256  0.3040  1.1770 -1.7174
 2606SOL    HW2 8135   1.099   5.129   3.163  2.5193  0.0121 -1.1452
 2607SOL     OW 8136   1.060   3.332   0.482 -0.0276  0.0130  0.3862
 2607SOL    HW1 8137   1.077   3.352   0.390 -0.5311 -0.4555  0.1875
 2607SOL    HW2 8138   1.090   3.410   0.530  0.0576  0.3350 -0.1847
 2608SOL     OW 8139   2.592   0.036   4.856 -0.5423  0.5774 -0.4604
 2608SOL    HW1 8140   2.511   0.002   4.818 -0.3614 -0.8259  0.3231
 2608SOL    HW2 8141   2.570   0.125   4.884 -1.2869  0.8472 -1.8454
 2609SOL     OW 8142   0.080   1.742   0.226 -0.0435  0.2542 -0.2254
 2609SOL    HW1 8143  -0.015   1.732   0.218 -0.1148 -0.2505  1.0840
 2609SOL    HW2 8144   0.111   1.749   0.135 -1.3120  0.3187 -0.6696
 2610SOL     OW 8145   2.283   5.269   3.442  0.0030 -0.1204 -0.3243
 2610SOL    HW1 8146   2.317   5.180   3.429  1.5991  0.2816  0.7316
 2610SOL    HW2 8147   2.359   5.325   3.429 -1.6061  1.4928 -4.4021
 2611SOL     OW 8148   0.061   1.005   2.373  0.2360 -0.6617 -0.3495
 2611SOL    HW1 8149  -0.001   0.972   2.308  0.2385 -1.6636  0.1318
 2611SOL    HW2 8150   0.007   1.024   2.450  0.3617 -0.3527 -0.3351
 2612SOL     OW 8151   2.680   0.917   0.849 -0.1430  0.2236  0.0206
 2612SOL    HW1 8152   2.634   0.982   0.795  2.4509  1.1907 -1.1797
 2612SOL    HW2 8153   2.654   0.833   0.812  0.1269  0.8021 -1.5760
 2613SOL     OW 8154   2.052   2.449   5.328  0.1666  0.2436  0.4695
 2613SOL    HW1 8155   2.100   2.499   5.394  1.2534 -0.0231 -0.1019
 2613SOL    HW2 8156   2.055   2.359   5.360  0.6464  0.1223  0.0908
 2614SOL     OW 8157   4.080   1.382   5.325  0.0863  0.3068 -0.1770
 2614SOL    HW1 8158   4.010   1.318   5.310  0.1113  0.1699  0.2724
 2614SOL    HW2 8159   4.160   1.330   5.328  0.3472  0.5661 -1.6767
 2615SOL     OW 8160   0.184   0.525   1.918  0.0238  0.1908 -0.2536
 2615SOL    HW1 8161   0.110   0.564   1.872 -0.2808  0.3902  0.4037
 2615SOL    HW2 8162   0.149   0.444   1.954  0.2414  0.0791 -0.2903
 2616SOL     OW 8163   3.821   0.758   4.291  0.5790  0.0219  0.5057
 2616SOL    HW1 8164   3.829   0.702   4.214  0.9915 -0.9183  1.2090
 2616SOL    HW2 8165   3.728   0.784   4.292  0.6470  0.3322 -0.4831
 2617SOL     OW 8166   0.821   3.799   2.806 -0.0496  0.6809 -0.1302
 2617SOL    HW1 8167   0.739   3.794   2.756 -0.3398 -0.0825  0.4001
 2617SOL    HW2 8168   0.794   3.826   2.894  0.1297 -0.5335  0.3231
 2618SOL     OW 8169   5.173   2.831   4.369 -0.2307 -0.0691  0.2796
 2618SOL    HW1 8170   5.191   2.747   4.412 -0.3767  0.3608  1.1834
 2618SOL    HW2 8171   5.213   2.821   4.282 -0.8699 -1.3419  0.1001
 2619SOL     OW 8172   5.321   1.631   4.420 -0.7540 -0.3868  0.3790
 2619SOL    HW1 8173   5.396   1.632   4.480 -0.8472 -1.7391  0.5407
 2619SOL    HW2 8174   5.263   1.699   4.454  0.1493  0.3005  0.5712
 2620SOL     OW 8175   4.999   2.812   5.211 -0.5263  0.3921 -0.2892
 2620SOL    HW1 8176   4.931   2.774   5.267  0.8195 -0.3220  0.9098
 2620SOL    HW2 8177   5.062   2.742   5.199  1.4514  1.8547  1.0175
 2621SOL     OW 8178   4.708   4.296   4.038  0.4630  0.0006  0.0379
 2621SOL    HW1 8179   4.669   4.335   4.117  0.0299 -0.7751  0.2137
 2621SOL    HW2 8180   4.691   4.361   3.970  1.1546  0.8498  0.6416
 2622SOL     OW 8181   3.084   4.073   3.902 -0.0304 -0.8043 -0.5544
 2622SOL    HW1 8182   2.999   4.056   3.861 -0.2531 -2.0619  0.3947
 2622SOL    HW2 8183   3.106   3.992   3.948  1.5187 -0.3761 -0.4666
 2623SOL     OW 8184   3.181   0.938   5.450 -0.5795  0.1755  0.3725
 2623SOL    HW1 8185   3.197   0.975   5.537 -0.8821  2.5763 -0.5331
 2623SOL    HW2 8186   3.252   0.875   5.438  0.9935  1.6545  1.3692
 2624SOL     OW 8187   1.318   3.023   1.409 -0.4431 -0.3881 -0.0332
 2624SOL    HW1 8188   1.358   2.965   1.474  0.0297  0.4956  0.4812
 2624SOL    HW2 8189   1.320   2.973   1.327  0.5354 -0.8432  0.2632
 2625SOL     OW 8190   0.115   2.251   5.078  0.1884  0.6322  0.3585
 2625SOL    HW1 8191   0.147   2.269   5.166  2.5938 -0.6526 -0.1416
 2625SOL    HW2 8192   0.093   2.158   5.079  1.4226  0.2963 -0.6577
 2626SOL     OW 8193   1.921   5.112   2.196 -0.1390 -0.3422 -0.7694
 2626SOL    HW1 8194   1.976   5.180   2.234  1.8969 -2.2475 -0.0344
 2626SOL    HW2 8195   1.864   5.084   2.268  1.6126 -1.8663  0.1178
 2627SOL     OW 8196   0.143   4.696   0.093  0.0069 -0.1332  0.5632
 2627SOL    HW1 8197   0.103   4.621   0.137  0.9106  0.1043  1.8513
 2627SOL    HW2 8198   0.189   4.658   0.018 -0.5459 -0.6966  0.4980
 2628SOL     OW 8199   3.506   5.296   1.387  0.0387  0.6049  0.0701
 2628SOL    HW1 8200   3.558   5.345   1.323 -0.0524 -0.6374 -1.0079
 2628SOL    HW2 8201   3.430   5.351   1.404 -0.4173  0.5651 -1.6463
 2629SOL     OW 8202   3.056   1.958   2.866 -0.0186 -0.9353 -0.1565
 2629SOL    HW1 8203   2.965   1.932   2.846 -0.3704  0.5463 -0.6076
 2629SOL    HW2 8204   3.099   1.959   2.780 -0.0026 -0.1026 -0.1415
 2630SOL     OW 8205   3.204   1.421   5.168 -0.4364 -0.2501  0.3232
 2630SOL    HW1 8206   3.293   1.441   5.195 -0.8105 -0.6729  1.9845
 2630SOL    HW2 8207   3.214   1.356   5.098  0.5710  0.3434 -0.0927
 2631SOL     OW 8208   2.662   2.275   5.434 -0.1461 -0.8188 -0.7309
 2631SOL    HW1 8209   2.591   2.295   5.372  0.8146  4.3035 -0.5760
 2631SOL    HW2 8210   2.633   2.314   5.516  1.8400 -0.7312 -0.0298
 2632SOL     OW 8211   1.963   1.105   1.325 -0.0595  0.2743  0.3837
 2632SOL    HW1 8212   2.019   1.027   1.320 -0.4299  0.0597 -0.5687
 2632SOL    HW2 8213   1.875   1.071   1.338 -0.2618  0.5130 -0.3139
 2633SOL     OW 8214   0.445   1.173   0.165  0.0549  0.1755 -0.1090
 2633SOL    HW1 8215   0.370   1.130   0.125 -1.8189  2.5801  0.6034
 2633SOL    HW2 8216   0.410   1.218   0.242  2.6578 -0.4051  1.5702
 2634SOL     OW 8217   2.260   2.489   3.461 -0.0749  0.0255 -0.5845
 2634SOL    HW1 8218   2.248   2.494   3.366  0.4831 -1.3124 -0.7513
 2634SOL    HW2 8219   2.354   2.484   3.474 -0.1221  0.7137  0.0823
 2635SOL     OW 8220   0.477   3.355   5.253 -0.3642  0.1723  0.1551
 2635SOL    HW1 8221   0.552   3.410   5.230 -0.5236 -0.1813 -1.3732
 2635SOL    HW2 8222   0.430   3.344   5.170 -1.5515 -0.4406  0.8886
 2636SOL     OW 8223   0.830   4.825   0.783  0.5530  0.1378 -0.3710
 2636SOL    HW1 8224   0.743   4.828   0.823  0.6657  0.4975 -0.1460
 2636SOL    HW2 8225   0.840   4.734   0.755  0.5455 -0.1765  0.5960
 2637SOL     OW 8226   4.640   4.380   2.210 -0.1902  0.4145 -0.1011
 2637SOL    HW1 8227   4.596   4.319   2.152 -0.8465  1.5855 -0.8678
 2637SOL    HW2 8228   4.583   4.457   2.214  1.3184  1.6119 -0.3951
 2638SOL     OW 8229   4.230   3.497   3.712 -0.1567 -0.1627  0.4360
 2638SOL    HW1 8230   4.154   3.494   3.770 -1.1168 -2.1046 -0.8181
 2638SOL    HW2 8231   4.292   3.434   3.750 -0.4787 -0.8784 -0.1934
 2639SOL     OW 8232   5.192   2.467   0.134 -0.2122 -0.8156 -0.4135
 2639SOL    HW1 8233   5.283   2.460   0.104  0.3125 -0.7376  1.0668
 2639SOL    HW2 8234   5.198   2.510   0.219 -1.6434 -0.8195 -0.2824
 2640SOL     OW 8235   1.483   4.429   0.632  0.0235 -0.1728  0.2661
 2640SOL    HW1 8236   1.443   4.430   0.719 -0.5061 -1.0184  0.0492
 2640SOL    HW2 8237   1.570   4.391   0.646  0.5836  1.2150  0.6649
 2641SOL     OW 8238   2.460   5.101   3.030  0.1366  0.1502  0.0641
 2641SOL    HW1 8239   2.408   5.181   3.037 -0.3819 -0.1175 -0.5581
 2641SOL    HW2 8240   2.450   5.074   2.939  2.7025  0.9657 -0.5268
 2642SOL     OW 8241   5.512   1.339   3.760  0.7011 -0.5484  0.3562
 2642SOL    HW1 8242   5.447   1.274   3.735  0.6386 -0.2242 -0.3668
 2642SOL    HW2 8243   5.595   1.292   3.761  0.3013 -1.2888  2.6444
 2643SOL     OW 8244   2.354   0.043   2.291 -0.2626  0.5083  0.2983
 2643SOL    HW1 8245   2.369  -0.050   2.277 -2.2751  0.0422  0.8998
 2643SOL    HW2 8246   2.396   0.086   2.217  1.5876 -0.7854  0.5466
 2644SOL     OW 8247   3.488   0.644   3.883 -0.1875 -0.1352  0.0403
 2644SOL    HW1 8248   3.570   0.596   3.881  0.1399  0.3357  1.1720
 2644SOL    HW2 8249   3.421   0.579   3.864  0.2050 -1.1597  1.8857
 2645SOL     OW 8250   2.833   2.459   4.960  0.0556 -0.0145 -0.6601
 2645SOL    HW1 8251   2.795   2.391   5.015 -0.3430  0.4697 -0.3321
 2645SOL    HW2 8252   2.920   2.426   4.937 -0.3408 -0.8725 -0.9452
 2646SOL     OW 8253   0.382   3.414   1.636  0.1078 -0.7684  0.5101
 2646SOL    HW1 8254   0.335   3.474   1.579 -1.8121 -2.9614 -0.3960
 2646SOL    HW2 8255   0.459   3.388   1.585 -0.7125 -1.4352 -0.4239
 2647SOL     OW 8256   1.276   4.091   2.788 -0.0656 -0.0929  0.0581
 2647SOL    HW1 8257   1.196   4.080   2.839  0.6342 -0.6578  1.0571
 2647SOL    HW2 8258   1.289   4.007   2.744  0.6019 -0.4194  0.8429
 2648SOL     OW 8259   2.849   0.158   2.693 -0.0611 -0.7024 -0.2729
 2648SOL    HW1 8260   2.770   0.110   2.668 -0.2330 -0.7305  0.3304
 2648SOL    HW2 8261   2.913   0.134   2.626 -0.8771  0.1827 -1.4228
 2649SOL     OW 8262   2.739   1.228   3.661  0.2290 -0.5411 -0.2395
 2649SOL    HW1 8263   2.818   1.234   3.715  0.3067 -1.0744 -0.2912
 2649SOL    HW2 8264   2.770   1.239   3.572  0.2550 -0.8254 -0.2657
 2650SOL     OW 8265   1.398   3.520   5.220 -0.0488  0.5072  0.4639
 2650SOL    HW1 8266   1.410   3.612   5.197  0.0349  0.6662  1.1186
 2650SOL    HW2 8267   1.308   3.515   5.252 -0.1899  0.2744  0.0373
 2651SOL     OW 8268   3.804   4.576   0.451 -0.2659 -0.2280  0.5170
 2651SOL    HW1 8269   3.833   4.656   0.495 -1.5523 -0.1991  1.3970
 2651SOL    HW2 8270   3.744   4.536   0.514 -2.5094 -0.0041 -1.3481
 2652SOL     OW 8271   4.095   4.887   0.082 -0.2805  0.3055 -0.2403
 2652SOL    HW1 8272   4.018   4.941   0.063  0.1788  1.8340  1.8443
 2652SOL    HW2 8273   4.129   4.923   0.164  0.7234 -2.4796  0.6618
 2653SOL     OW 8274   2.494   2.784   4.031 -0.1248  0.4366  0.2740
 2653SOL    HW1 8275   2.401   2.799   4.015 -0.3711 -1.9592 -0.8794
 2653SOL    HW2 8276   2.524   2.865   4.072 -1.8857  2.7458 -2.6467
 2654SOL     OW 8277   2.512   3.403   0.647 -0.0469 -0.0595  0.8897
 2654SOL    HW1 8278   2.576   3.474   0.643 -2.0305  1.7757 -1.6882
 2654SOL    HW2 8279   2.448   3.432   0.711 -0.4607  0.1188  0.3974
 2655SOL     OW 8280   2.734   0.548   3.359  0.2838 -0.0610 -0.3159
 2655SOL    HW1 8281   2.800   0.521   3.423  0.1047 -1.5425 -0.7271
 2655SOL    HW2 8282   2.782   0.555   3.276  0.5987  2.2329 -0.0061
 2656SOL     OW 8283   0.096   0.406   4.534 -0.4496 -0.4163  0.5743
 2656SOL    HW1 8284   0.183   0.400   4.574  0.8106 -2.6085 -2.1492
 2656SOL    HW2 8285   0.041   0.347   4.587 -0.2302  0.6165  2.0250
 2657SOL     OW 8286   2.463   2.295   1.324 -0.1817  0.6563  0.1046
 2657SOL    HW1 8287   2.416   2.339   1.395 -0.2153 -0.8216  1.0456
 2657SOL    HW2 8288   2.394   2.262   1.266 -0.3266 -0.7744  1.0369
 2658SOL     OW 8289   5.007   2.367   3.010  0.2163  0.4123  0.5823
 2658SOL    HW1 8290   5.027   2.274   3.022 -0.4065  0.2547  0.4365
 2658SOL    HW2 8291   5.036   2.386   2.920  0.1946  0.3214  0.5556
 2659SOL     OW 8292   2.419   4.687   2.867 -0.3938 -0.7778  0.2908
 2659SOL    HW1 8293   2.484   4.628   2.905  0.6833  0.1584 -0.0134
 2659SOL    HW2 8294   2.403   4.752   2.935 -0.2019 -0.4119 -0.0068
 2660SOL     OW 8295   1.565   1.064   2.926 -0.8219  0.1382  0.7164
 2660SOL    HW1 8296   1.621   1.080   2.850 -0.7948 -0.9401  0.4939
 2660SOL    HW2 8297   1.542   1.151   2.957 -1.1566  0.6057 -0.7554
 2661SOL     OW 8298   1.726   2.126   4.046 -0.2472  0.2332  0.3190
 2661SOL    HW1 8299   1.754   2.138   3.955  2.3072 -0.3011  0.9350
 2661SOL    HW2 8300   1.759   2.039   4.069 -1.5282  0.0456  1.5512
 2662SOL     OW 8301   1.928   0.797   1.152  0.8255  0.1234  0.7413
 2662SOL    HW1 8302   1.870   0.728   1.184  0.2815  1.1425  2.0282
 2662SOL    HW2 8303   1.996   0.804   1.220  0.7626  0.9661  0.7335
 2663SOL     OW 8304   1.411   3.216   1.879 -0.1172  0.4205  0.0869
 2663SOL    HW1 8305   1.389   3.183   1.792  0.0919  2.6406 -0.8856
 2663SOL    HW2 8306   1.507   3.223   1.879  0.0166 -0.9746  1.0857
 2664SOL     OW 8307   4.690   1.779   3.792  0.0141  0.2078  0.2729
 2664SOL    HW1 8308   4.655   1.720   3.859 -0.2935  0.1432  0.0594
 2664SOL    HW2 8309   4.784   1.781   3.809 -0.2616  1.5970  1.8302
 2665SOL     OW 8310   2.065   5.527   5.288 -0.3394  0.2344 -0.4046
 2665SOL    HW1 8311   1.993   5.564   5.237 -0.7742  0.4801  0.3712
 2665SOL    HW2 8312   2.090   5.597   5.348  1.7414  0.8032 -1.8232
 2666SOL     OW 8313   1.033   0.251   3.814 -0.1295  0.0233 -0.1481
 2666SOL    HW1 8314   1.040   0.167   3.768  0.4288 -0.9615  1.6229
 2666SOL    HW2 8315   1.036   0.316   3.745 -1.9354 -1.4233 -1.7120
 2667SOL     OW 8316   3.811   0.142   5.198  0.2322 -0.2986  0.2661
 2667SOL    HW1 8317   3.775   0.074   5.256 -1.1381  0.5324  0.4577
 2667SOL    HW2 8318   3.780   0.224   5.237  0.9384  0.3801 -0.5725
 2668SOL     OW 8319   4.796   0.059   1.734  0.0991  0.1566 -0.0070
 2668SOL    HW1 8320   4.873   0.087   1.685 -0.2250  1.4163  0.1835
 2668SOL    HW2 8321   4.811  -0.035   1.749  2.0686  0.5497  0.8556
 2669SOL     OW 8322   3.932   5.250   1.035 -0.2380 -0.2717 -0.6536
 2669SOL    HW1 8323   3.951   5.267   0.943  1.8170  0.6978 -0.0951
 2669SOL    HW2 8324   3.927   5.337   1.075  0.9453 -0.7058  0.5109
 2670SOL     OW 8325   5.430   1.832   4.229 -0.7423 -0.6449  0.2252
 2670SOL    HW1 8326   5.345   1.791   4.249 -2.4666  2.2427 -0.7258
 2670SOL    HW2 8327   5.423   1.859   4.138  0.6252  0.9344  0.5516
 2671SOL     OW 8328   3.170   3.720   3.587 -0.0564  0.1905 -0.4145
 2671SOL    HW1 8329   3.113   3.793   3.564 -0.2954  0.3581  0.6323
 2671SOL    HW2 8330   3.142   3.649   3.530 -0.3324  0.6904 -0.9195
 2672SOL     OW 8331   3.290   1.047   0.385 -0.0423  0.5730 -0.0030
 2672SOL    HW1 8332   3.324   1.011   0.467 -1.3734  0.0418  0.3277
 2672SOL    HW2 8333   3.211   1.095   0.410 -0.1468  0.9066 -0.9045
 2673SOL     OW 8334   5.433   3.190   2.705  0.1870 -0.4466  0.2852
 2673SOL    HW1 8335   5.490   3.261   2.677  0.5958 -1.4497 -1.6239
 2673SOL    HW2 8336   5.345   3.220   2.683  0.0591  0.5010  1.9058
 2674SOL     OW 8337   2.358   1.892   1.610 -0.2760 -0.9055  0.5674
 2674SOL    HW1 8338   2.263   1.893   1.622 -0.3513  0.5015  0.0347
 2674SOL    HW2 8339   2.393   1.927   1.692 -0.3968  1.1550 -0.1842
 2675SOL     OW 8340   5.151   1.713   5.189 -0.6950 -0.5333  0.2503
 2675SOL    HW1 8341   5.240   1.678   5.181 -0.1108  0.5650  1.5485
 2675SOL    HW2 8342   5.157   1.803   5.157 -1.0913 -0.1337  1.2356
 2676SOL     OW 8343   2.776   5.147   5.076 -0.5683 -0.0117  0.8411
 2676SOL    HW1 8344   2.692   5.191   5.062  0.2251  1.3376  0.0867
 2676SOL    HW2 8345   2.823   5.203   5.138  0.2560 -0.0388  0.2662
 2677SOL     OW 8346   0.017   2.826   2.556  0.3116  0.0192 -0.0464
 2677SOL    HW1 8347   0.108   2.842   2.531  0.5463  0.4376  1.0054
 2677SOL    HW2 8348  -0.034   2.856   2.481  0.9854  0.9317 -0.1574
 2678SOL     OW 8349   5.530   1.294   0.324  0.0486  0.2230  0.9026
 2678SOL    HW1 8350   5.501   1.362   0.385  0.6042 -0.5820  2.0949
 2678SOL    HW2 8351   5.536   1.215   0.377  0.8354 -0.4397 -0.1405
 2679SOL     OW 8352   4.675   2.196   5.188 -0.1757 -0.4794  0.4232
 2679SOL    HW1 8353   4.630   2.172   5.269 -1.5941 -0.2212 -0.2591
 2679SOL    HW2 8354   4.699   2.288   5.200  1.6929 -1.0467  1.4374
 2680SOL     OW 8355   4.071   0.308   0.265 -0.0067  0.3337 -0.0662
 2680SOL    HW1 8356   4.031   0.227   0.296 -1.9079  1.6276  1.1666
 2680SOL    HW2 8357   4.073   0.365   0.343  0.8500  1.6032 -0.9744
 2681SOL     OW 8358   2.773   2.664   2.372 -0.3255 -0.1295 -0.0254
 2681SOL    HW1 8359   2.743   2.585   2.417 -1.3873  1.1163  1.5718
 2681SOL    HW2 8360   2.852   2.690   2.419 -0.7569  0.5159  0.3455
 2682SOL     OW 8361   3.932   5.476   1.182 -0.2511  0.4649 -0.1209
 2682SOL    HW1 8362   4.023   5.471   1.155 -0.9128 -0.2004 -2.5208
 2682SOL    HW2 8363   3.929   5.547   1.246  1.7787  1.1773 -0.7599
 2683SOL     OW 8364   1.245   2.828   3.044  0.2206  0.1048  0.0009
 2683SOL    HW1 8365   1.172   2.772   3.068 -1.2126  0.5630 -2.8784
 2683SOL    HW2 8366   1.303   2.771   2.993  0.7591  0.3187  0.3593
 2684SOL     OW 8367   2.149   4.664   4.014 -0.2693 -0.1250 -0.2255
 2684SOL    HW1 8368   2.100   4.743   3.994 -1.6660 -1.1876 -1.1900
 2684SOL    HW2 8369   2.102   4.594   3.968  1.0154 -1.4935  0.4525
 2685SOL     OW 8370   3.372   3.876   0.646  0.0358  0.3461  0.2562
 2685SOL    HW1 8371   3.293   3.854   0.696  0.0136 -0.6242 -0.1904
 2685SOL    HW2 8372   3.340   3.922   0.569  0.0951  2.2456  1.2940
 2686SOL     OW 8373   0.744   4.024   1.102 -0.0525  0.2576  0.3177
 2686SOL    HW1 8374   0.693   3.996   1.026  1.7303 -0.2116 -0.7836
 2686SOL    HW2 8375   0.699   4.102   1.134  0.6532  2.2085 -2.9944
 2687SOL     OW 8376   2.075   3.542   1.166  0.1941  0.6441  0.3341
 2687SOL    HW1 8377   2.057   3.568   1.076 -0.3511  2.1323  0.8341
 2687SOL    HW2 8378   2.056   3.621   1.218 -0.5479 -0.4830  1.8632
 2688SOL     OW 8379   4.897   0.729   5.324  0.4229 -0.1404  0.2569
 2688SOL    HW1 8380   4.949   0.761   5.398  2.5225 -0.7193 -0.8858
 2688SOL    HW2 8381   4.853   0.807   5.290  0.4591  0.3571  1.3289
 2689SOL     OW 8382   4.598   4.520   4.994  0.1827 -0.4791 -0.7134
 2689SOL    HW1 8383   4.583   4.427   4.977 -0.2918 -0.2714 -1.5033
 2689SOL    HW2 8384   4.529   4.565   4.945  1.8274  0.4021 -2.3789
 2690SOL     OW 8385   4.127   5.388   4.908 -0.2256  0.0874  0.5803
 2690SOL    HW1 8386   4.209   5.438   4.912  0.1292 -0.3772 -0.6672
 2690SOL    HW2 8387   4.141   5.315   4.968  0.1552  0.1762  0.6002
 2691SOL     OW 8388   0.910   1.123   0.276 -0.0161  0.0481 -0.0958
 2691SOL    HW1 8389   0.830   1.071   0.268 -0.4423  0.7858 -0.7202
 2691SOL    HW2 8390   0.889   1.189   0.342  0.5816 -0.6596  0.8225
 2692SOL     OW 8391   1.353   4.050   4.395 -0.4953  0.7593  0.2436
 2692SOL    HW1 8392   1.299   4.084   4.323 -0.5021 -0.3361 -0.2851
 2692SOL    HW2 8393   1.290   4.007   4.453 -0.4397  1.3142  0.7314
 2693SOL     OW 8394   0.736   1.779   1.403  0.0880 -0.3478 -0.0725
 2693SOL    HW1 8395   0.747   1.858   1.456 -0.2550  0.1185 -0.6898
 2693SOL    HW2 8396   0.807   1.721   1.433 -0.0245 -0.0501  0.8010
 2694SOL     OW 8397   4.594   4.736   1.465 -0.5896 -0.1925  0.0610
 2694SOL    HW1 8398   4.622   4.656   1.420  0.8683  0.1213  0.3473
 2694SOL    HW2 8399   4.641   4.733   1.549 -0.5459  0.9498  0.0873
 2695SOL     OW 8400   4.096   0.362   5.107  0.1962 -0.2111  0.1290
 2695SOL    HW1 8401   4.114   0.442   5.157 -0.5574 -0.4482  0.8046
 2695SOL    HW2 8402   4.034   0.389   5.039  1.0506  0.0657 -0.5559
 2696SOL     OW 8403   0.230   1.695   4.530 -0.1403 -0.3301  0.3904
 2696SOL    HW1 8404   0.151   1.643   4.543  1.2798 -3.6668 -2.5375
 2696SOL    HW2 8405   0.206   1.762   4.466 -1.1909  0.5497  1.6620
 2697SOL     OW 8406   1.268   4.181   1.741  0.1867  0.9262  0.0136
 2697SOL    HW1 8407   1.335   4.212   1.679  1.1759 -0.4598  0.3547
 2697SOL    HW2 8408   1.224   4.109   1.694  2.8907 -2.1799  1.8287
 2698SOL     OW 8409   5.026   1.777   1.783  0.7352  0.0227 -0.3344
 2698SOL    HW1 8410   5.036   1.707   1.848  1.7375 -0.1842 -0.6909
 2698SOL    HW2 8411   5.116   1.799   1.757  0.3904  0.7658 -0.9493
 2699SOL     OW 8412   2.561   0.820   2.950 -0.3082 -0.5445 -0.7451
 2699SOL    HW1 8413   2.473   0.782   2.962 -0.0873 -1.5100 -1.9211
 2699SOL    HW2 8414   2.562   0.849   2.859  0.5422 -0.4119 -0.7013
 2700SOL     OW 8415   4.303   3.280   2.004  0.0642  0.2370 -0.2060
 2700SOL    HW1 8416   4.227   3.310   2.053  0.2593 -0.1232  0.3319
 2700SOL    HW2 8417   4.376   3.331   2.040  0.2719 -0.3131  0.1695
 2701SOL     OW 8418   4.471   4.673   3.422  0.6355 -0.2632 -0.1070
 2701SOL    HW1 8419   4.378   4.676   3.402  0.8900 -0.2143 -1.3439
 2701SOL    HW2 8420   4.478   4.609   3.493 -0.3023 -0.4758 -0.1945
 2702SOL     OW 8421   0.982   0.071   3.213  0.4508 -0.0429  0.2696
 2702SOL    HW1 8422   0.952   0.046   3.126 -2.7007  0.1305  1.1801
 2702SOL    HW2 8423   0.932   0.150   3.234  2.1073  0.6968  1.7562
 2703SOL     OW 8424   3.298   4.941   3.343  0.1354  0.3249  0.3692
 2703SOL    HW1 8425   3.356   4.966   3.271  0.3926 -1.1294  0.0257
 2703SOL    HW2 8426   3.358   4.916   3.414 -0.0931  0.2396  0.5353
 2704SOL     OW 8427   0.708   3.546   1.029  0.0795  0.1621  0.0287
 2704SOL    HW1 8428   0.721   3.545   1.124 -1.0526 -0.6968  0.1906
 2704SOL    HW2 8429   0.641   3.612   1.015 -0.0469 -0.0006 -0.1309
 2705SOL     OW 8430   1.794   5.278   2.636 -0.2964 -0.4032 -0.5585
 2705SOL    HW1 8431   1.799   5.356   2.581  1.8400  0.9892  1.4271
 2705SOL    HW2 8432   1.714   5.290   2.688 -0.1734  0.3190 -0.5258
 2706SOL     OW 8433   1.967   3.882   0.074  0.0431  0.3717 -0.0765
 2706SOL    HW1 8434   1.916   3.936   0.013  0.8547 -0.1435 -1.2434
 2706SOL    HW2 8435   1.951   3.792   0.046  1.6545  0.1956 -0.5622
 2707SOL     OW 8436   3.273   4.093   3.711 -0.2928  0.0389  0.3499
 2707SOL    HW1 8437   3.217   4.112   3.636 -0.5517  1.1191  0.7971
 2707SOL    HW2 8438   3.220   4.116   3.787  0.7872  1.2635  0.7794
 2708SOL     OW 8439   2.044   2.356   0.104  0.0426  0.2004  0.0616
 2708SOL    HW1 8440   2.009   2.445   0.095  0.0091  0.1165 -0.6682
 2708SOL    HW2 8441   1.994   2.319   0.177  0.3369  0.9079  0.6429
 2709SOL     OW 8442   4.030   3.261   2.465  0.1657 -0.1772 -0.1934
 2709SOL    HW1 8443   3.969   3.334   2.482  0.4988  0.0963 -0.1695
 2709SOL    HW2 8444   3.992   3.187   2.513  0.0929  0.1096  0.2007
 2710SOL     OW 8445   4.103   0.955   2.208  0.0809  0.3859 -0.6348
 2710SOL    HW1 8446   4.015   0.976   2.178 -0.4414 -1.1015 -0.2171
 2710SOL    HW2 8447   4.149   0.927   2.128 -0.4127 -0.6815 -0.5612
 2711SOL     OW 8448   1.562   0.199   1.326  0.3849  0.2113  0.2735
 2711SOL    HW1 8449   1.590   0.108   1.337  1.5734  0.8182  3.2990
 2711SOL    HW2 8450   1.609   0.229   1.248 -0.9466 -2.0064 -1.5207
 2712SOL     OW 8451   4.839   0.960   4.317 -0.3529 -0.2401 -0.2183
 2712SOL    HW1 8452   4.890   0.892   4.273 -0.4269 -1.0790  0.9159
 2712SOL    HW2 8453   4.774   0.988   4.253  1.1260  0.3942 -1.4688
 2713SOL     OW 8454   5.048   5.099   2.513  0.3664  0.3510  0.0056
 2713SOL    HW1 8455   5.113   5.043   2.470  0.5696 -0.3035  1.1403
 2713SOL    HW2 8456   5.097   5.177   2.538  0.3851  0.4719 -0.3974
 2714SOL     OW 8457   1.591   4.600   2.402 -0.3327 -0.2081 -1.0029
 2714SOL    HW1 8458   1.624   4.687   2.424 -1.8248 -0.2518  1.8048
 2714SOL    HW2 8459   1.669   4.544   2.404  0.0284  0.1120  3.0734
 2715SOL     OW 8460   1.069   0.973   1.388 -0.3115  0.2993  0.4204
 2715SOL    HW1 8461   1.158   0.987   1.418 -0.1437 -0.6648  0.4024
 2715SOL    HW2 8462   1.032   0.911   1.451  0.0937 -1.8987 -1.3676
 2716SOL     OW 8463   1.404   2.423   0.658 -0.0475 -0.0030 -0.3686
 2716SOL    HW1 8464   1.466   2.406   0.729  0.5671  1.3821 -0.5332
 2716SOL    HW2 8465   1.379   2.337   0.626 -0.1226 -0.6327  1.3432
 2717SOL     OW 8466   3.981   3.529   1.982 -0.0861  0.0017  0.6432
 2717SOL    HW1 8467   4.042   3.520   1.910  1.6150  0.2135  1.9914
 2717SOL    HW2 8468   3.936   3.613   1.965 -2.5631 -1.6818 -2.1097
 2718SOL     OW 8469   2.392   2.630   4.961 -0.3905 -0.4663 -0.0475
 2718SOL    HW1 8470   2.394   2.661   4.870 -0.5222  0.7248  0.3440
 2718SOL    HW2 8471   2.299   2.611   4.977 -0.1378 -2.5484 -0.7451
 2719SOL     OW 8472   4.424   4.505   4.588  0.7015  0.2365 -0.0347
 2719SOL    HW1 8473   4.504   4.453   4.583  1.1882  1.0963 -2.2390
 2719SOL    HW2 8474   4.354   4.440   4.599  1.5946 -0.5698  1.2121
 2720SOL     OW 8475   3.039   2.813   3.389 -0.4685  0.2634  0.0562
 2720SOL    HW1 8476   3.090   2.735   3.412 -0.4651  0.3614  0.3823
 2720SOL    HW2 8477   3.028   2.859   3.472 -1.0460  0.2714 -0.0273
 2721SOL     OW 8478   1.985   4.701   3.557 -0.0114  0.2874 -0.4694
 2721SOL    HW1 8479   1.917   4.650   3.513 -0.1084 -0.2789  0.3227
 2721SOL    HW2 8480   1.937   4.766   3.609  0.0999  0.8581 -1.0572
 2722SOL     OW 8481   2.811   2.079   0.167 -0.0293  0.2281  0.1360
 2722SOL    HW1 8482   2.734   2.037   0.205 -1.0662  1.3712 -0.6179
 2722SOL    HW2 8483   2.836   2.146   0.230  0.9221 -0.7162  0.7974
 2723SOL     OW 8484   2.142   4.178   5.372 -0.3340  0.0143  0.0931
 2723SOL    HW1 8485   2.166   4.270   5.386 -1.3121  0.2838  0.0725
 2723SOL    HW2 8486   2.060   4.182   5.322 -0.4091 -0.8710  0.1322
 2724SOL     OW 8487   1.664   0.734   3.269  0.7844  0.0691  0.6953
 2724SOL    HW1 8488   1.654   0.798   3.199  0.0817 -0.6501  0.1171
 2724SOL    HW2 8489   1.750   0.753   3.307  1.0756  0.6235 -0.2122
 2725SOL     OW 8490   2.403   4.541   4.992 -0.2835  0.0101  0.0559
 2725SOL    HW1 8491   2.363   4.573   4.912 -0.1016 -1.8212 -0.8076
 2725SOL    HW2 8492   2.340   4.563   5.061 -1.5811 -0.4995 -0.9176
 2726SOL     OW 8493   2.903   4.807   0.198 -0.0034  0.3011  0.0701
 2726SOL    HW1 8494   2.869   4.849   0.277 -0.5073 -0.8253  0.4681
 2726SOL    HW2 8495   2.883   4.868   0.128 -2.5634 -0.1536  0.3267
 2727SOL     OW 8496   3.993   4.456   1.950 -0.1307  0.5452  0.4034
 2727SOL    HW1 8497   4.049   4.423   1.880 -0.4151  1.6486 -0.3758
 2727SOL    HW2 8498   4.041   4.436   2.031  1.0826  0.8656 -0.2063
 2728SOL     OW 8499   3.753   0.510   1.390 -0.4144  0.6293 -0.3742
 2728SOL    HW1 8500   3.721   0.559   1.466 -0.6050 -0.9774  0.6309
 2728SOL    HW2 8501   3.846   0.535   1.384 -0.7116  1.7618 -0.4311
 2729SOL     OW 8502   3.718   4.944   4.605 -0.4725  0.1195 -0.0748
 2729SOL    HW1 8503   3.801   4.929   4.651 -0.1074 -0.6899 -0.9692
 2729SOL    HW2 8504   3.656   4.887   4.650 -0.2979 -0.0826 -0.0856
 2730SOL     OW 8505   5.545   3.101   0.417 -0.9287 -0.3603  0.0150
 2730SOL    HW1 8506   5.608   3.031   0.397  1.1874  1.2861  0.5295
 2730SOL    HW2 8507   5.467   3.055   0.447  0.3865 -2.5197  0.3611
 2731SOL     OW 8508   4.297   1.776   2.055 -0.5647 -0.1267  0.1132
 2731SOL    HW1 8509   4.220   1.747   2.005  0.0718 -0.7626 -0.5194
 2731SOL    HW2 8510   4.356   1.701   2.054 -0.4565 -0.0980  1.7064
 2732SOL     OW 8511   1.274   0.849   1.542 -0.2680  0.5976 -0.0055
 2732SOL    HW1 8512   1.288   0.845   1.637  1.1587  1.2775 -0.1459
 2732SOL    HW2 8513   1.272   0.758   1.514  1.0848  0.3919  0.4825
 2733SOL     OW 8514   3.789   2.441   2.757  0.1919 -0.1531  0.3260
 2733SOL    HW1 8515   3.712   2.436   2.701  0.6449 -1.8062 -0.2067
 2733SOL    HW2 8516   3.863   2.448   2.697  0.6713 -1.7555  0.6932
 2734SOL     OW 8517   0.030   3.720   0.588 -0.3428  0.3400 -0.4437
 2734SOL    HW1 8518   0.083   3.690   0.662 -0.7727 -0.0184 -0.2792
 2734SOL    HW2 8519   0.093   3.730   0.517 -0.0215  0.0867 -0.2006
 2735SOL     OW 8520   4.963   1.794   3.810  0.2461 -0.8529  0.0921
 2735SOL    HW1 8521   4.999   1.860   3.870  0.2466  0.6664 -1.4921
 2735SOL    HW2 8522   5.016   1.716   3.826  2.2371  0.4075  0.0025
 2736SOL     OW 8523   4.679   3.869   1.197 -0.3054  0.7943 -0.0085
 2736SOL    HW1 8524   4.605   3.929   1.185 -0.8501  0.1288 -0.0451
 2736SOL    HW2 8525   4.639   3.782   1.195  0.4754  0.4325  0.0506
 2737SOL     OW 8526   0.276   4.919   4.282  0.8252 -0.0878  0.8062
 2737SOL    HW1 8527   0.265   4.857   4.209  1.1623  1.3531 -0.5069
 2737SOL    HW2 8528   0.217   4.991   4.261  2.9429  1.6386  0.4916
 2738SOL     OW 8529   0.424   5.015   3.328  1.1009  0.3092 -0.2406
 2738SOL    HW1 8530   0.493   5.079   3.317 -0.5477  2.5916  1.7794
 2738SOL    HW2 8531   0.412   5.007   3.422 -0.2856 -1.2471 -0.4965
 2739SOL     OW 8532   1.643   5.121   4.930  0.1350 -0.3307 -0.0962
 2739SOL    HW1 8533   1.681   5.208   4.923  1.0283 -0.7368 -0.4833
 2739SOL    HW2 8534   1.717   5.064   4.953 -0.3867 -1.0260 -0.0912
 2740SOL     OW 8535   0.313   0.318   2.881  0.3640 -0.2418 -0.5281
 2740SOL    HW1 8536   0.393   0.371   2.881 -1.2447  2.7371  3.6859
 2740SOL    HW2 8537   0.336   0.241   2.933  0.5035  0.6880  0.8259
 2741SOL     OW 8538   2.620   5.061   1.125  0.0207 -0.0624  0.3155
 2741SOL    HW1 8539   2.612   4.983   1.069  1.8137  0.8354 -1.3299
 2741SOL    HW2 8540   2.633   5.133   1.063  2.2983  0.9683  1.8416
 2742SOL     OW 8541   1.540   1.284   1.625  0.0243  0.0802  0.3670
 2742SOL    HW1 8542   1.448   1.309   1.619 -0.2374 -1.0682 -0.9683
 2742SOL    HW2 8543   1.577   1.311   1.540  0.3439 -1.5595 -0.0403
 2743SOL     OW 8544   4.834   1.344   3.970 -0.1300  0.0169  0.8021
 2743SOL    HW1 8545   4.831   1.302   4.056 -0.2921  1.6361  1.6351
 2743SOL    HW2 8546   4.911   1.308   3.927  0.8203  0.2821  2.2418
 2744SOL     OW 8547   4.154   0.453   4.773  0.2588 -0.0250 -0.6034
 2744SOL    HW1 8548   4.222   0.515   4.748  0.6116 -0.3846 -0.5448
 2744SOL    HW2 8549   4.171   0.376   4.720 -0.3450  0.0256 -0.8753
 2745SOL     OW 8550   4.626   0.443   5.141 -0.7066 -0.0213  0.0473
 2745SOL    HW1 8551   4.708   0.426   5.186 -1.0824 -0.5093  0.5605
 2745SOL    HW2 8552   4.599   0.358   5.106 -1.3031  0.0037  0.4229
 2746SOL     OW 8553   0.491   4.420   2.743  0.6063  0.4206  0.0168
 2746SOL    HW1 8554   0.534   4.374   2.816 -0.2184 -0.3363  0.0497
 2746SOL    HW2 8555   0.409   4.372   2.730 -1.6383  3.3950  1.7760
 2747SOL     OW 8556   3.936   3.501   4.998 -0.6338 -0.3031  0.0982
 2747SOL    HW1 8557   3.979   3.427   4.954  1.1325 -0.4998  1.9860
 2747SOL    HW2 8558   3.871   3.460   5.055  1.4232 -0.6831  2.3599
 2748SOL     OW 8559   4.113   3.546   4.710  0.0117  0.5461  0.0055
 2748SOL    HW1 8560   4.151   3.586   4.632  0.0158  1.4731  0.4639
 2748SOL    HW2 8561   4.041   3.605   4.733 -0.9158 -0.5071 -0.1294
 2749SOL     OW 8562   3.133   5.442   5.449  0.2274 -0.3483 -0.7006
 2749SOL    HW1 8563   3.070   5.380   5.411 -0.6098  0.0187  0.0469
 2749SOL    HW2 8564   3.211   5.390   5.466  0.3004 -0.7223 -2.0479
 2750SOL     OW 8565   3.736   3.772   3.365  0.2832  0.1801  0.3513
 2750SOL    HW1 8566   3.828   3.772   3.340  0.0987 -1.6429 -0.5043
 2750SOL    HW2 8567   3.689   3.776   3.282 -0.3849 -0.1893  0.6987
 2751SOL     OW 8568   2.240   0.140   0.954 -0.5003 -0.1427  0.5836
 2751SOL    HW1 8569   2.174   0.156   0.886 -2.0140  1.1545  2.2730
 2751SOL    HW2 8570   2.267   0.050   0.940 -2.6755 -0.7378 -0.1735
 2752SOL     OW 8571   0.720   0.994   2.673  0.2730  0.5031  0.2484
 2752SOL    HW1 8572   0.651   0.988   2.739  1.0077 -0.9754  0.9406
 2752SOL    HW2 8573   0.722   0.907   2.633  2.2265  0.2494  0.7950
 2753SOL     OW 8574   4.514   5.272   0.631 -0.0559  0.1794 -0.9904
 2753SOL    HW1 8575   4.421   5.253   0.622 -0.3047  0.8984 -0.0861
 2753SOL    HW2 8576   4.539   5.232   0.714  0.5042 -0.2348 -1.3564
 2754SOL     OW 8577   2.546   1.530   3.848 -0.4404 -0.5919  0.0543
 2754SOL    HW1 8578   2.546   1.626   3.848 -1.5095 -0.5575 -0.7858
 2754SOL    HW2 8579   2.494   1.506   3.924  0.8855 -0.5539  0.9986
 2755SOL     OW 8580   1.900   0.186   2.178 -0.0930 -0.1233 -0.4992
 2755SOL    HW1 8581   1.979   0.161   2.128  0.5146 -2.0936  1.2810
 2755SOL    HW2 8582   1.881   0.109   2.232 -1.2414  1.5519  1.6302
 2756SOL     OW 8583   4.893   2.869   0.024  0.6732 -0.3112  0.1232
 2756SOL    HW1 8584   4.933   2.783   0.010  0.1252 -1.2269  3.3663
 2756SOL    HW2 8585   4.832   2.879  -0.048  0.8748 -2.5900 -0.4470
 2757SOL     OW 8586   1.248   1.248   2.075 -0.3380 -0.3611  0.3617
 2757SOL    HW1 8587   1.310   1.175   2.084  1.0982  0.6130 -1.1228
 2757SOL    HW2 8588   1.297   1.324   2.106 -0.3961  0.5780 -1.7158
 2758SOL     OW 8589   0.599   4.086   2.255 -0.2256  0.3122 -0.0942
 2758SOL    HW1 8590   0.677   4.038   2.228 -0.6200 -0.4680  0.1214
 2758SOL    HW2 8591   0.616   4.112   2.345 -0.3921 -0.2438  0.1001
 2759SOL     OW 8592   4.045   3.365   2.191 -0.3739 -0.0964 -0.2112
 2759SOL    HW1 8593   3.992   3.416   2.131 -0.0787  0.9488  0.3970
 2759SOL    HW2 8594   4.096   3.430   2.239  0.3500 -0.9906  0.2598
 2760SOL     OW 8595   2.172   2.061   0.518 -0.1433 -0.6503  0.0071
 2760SOL    HW1 8596   2.099   2.121   0.534 -1.8760 -2.6894  0.0307
 2760SOL    HW2 8597   2.199   2.032   0.605 -0.9766 -1.8029 -0.1059
 2761SOL     OW 8598   5.440   4.928   4.152 -0.4187 -0.1766 -0.7698
 2761SOL    HW1 8599   5.521   4.970   4.182 -0.5684 -0.0932 -0.4859
 2761SOL    HW2 8600   5.451   4.921   4.057 -0.2245  0.1491 -0.7729
 2762SOL     OW 8601   5.524   1.087   1.175 -0.4103 -0.6457  0.2234
 2762SOL    HW1 8602   5.496   1.024   1.107 -0.7277 -0.5017  0.2193
 2762SOL    HW2 8603   5.615   1.105   1.153 -0.6140 -0.3160 -0.3924
 2763SOL     OW 8604   5.256   3.315   2.009  0.6130 -0.2423 -0.6834
 2763SOL    HW1 8605   5.244   3.324   1.914 -1.5951 -2.7571 -0.7729
 2763SOL    HW2 8606   5.208   3.235   2.031  0.7721  0.4440  2.6307
 2764SOL     OW 8607   1.439   0.067   2.065  0.2452  0.4956 -0.0675
 2764SOL    HW1 8608   1.421   0.034   1.977  0.0490 -0.3941  0.2908
 2764SOL    HW2 8609   1.524   0.029   2.088  0.5993  1.2381 -0.1097
 2765SOL     OW 8610   0.112   2.776   0.059  0.3159  0.2863 -0.9691
 2765SOL    HW1 8611   0.115   2.871   0.053 -2.5527  0.5903  0.5557
 2765SOL    HW2 8612   0.186   2.753   0.115 -0.6125  1.9796  1.0820
 2766SOL     OW 8613   1.837   0.661   0.820  0.0002  0.2066  0.7830
 2766SOL    HW1 8614   1.924   0.699   0.835  0.8095 -1.6641  1.1172
 2766SOL    HW2 8615   1.806   0.638   0.908 -1.4999  2.1073  0.8262
 2767SOL     OW 8616   5.308   3.693   1.752  0.5050  0.0436  0.5968
 2767SOL    HW1 8617   5.372   3.734   1.810 -0.0643  1.6999  0.1221
 2767SOL    HW2 8618   5.352   3.684   1.668  0.3774  0.4526  0.4834
 2768SOL     OW 8619   0.517   4.889   2.980 -0.0057  0.2436 -0.3324
 2768SOL    HW1 8620   0.598   4.842   2.963 -0.1879 -0.4987  0.7280
 2768SOL    HW2 8621   0.480   4.846   3.058 -1.1107  0.9496 -0.4401
 2769SOL     OW 8622   4.371   1.282   0.643 -0.5613  0.4055 -0.5036
 2769SOL    HW1 8623   4.336   1.286   0.732  2.3118 -0.1068  0.7734
 2769SOL    HW2 8624   4.318   1.343   0.593 -3.0525 -0.1898  1.2477
 2770SOL     OW 8625   1.660   2.333   1.787 -0.5815  0.4510  0.5414
 2770SOL    HW1 8626   1.612   2.335   1.870  0.2934  2.1007  1.0562
 2770SOL    HW2 8627   1.729   2.268   1.801 -1.1205 -0.0919  0.7005
 2771SOL     OW 8628   0.373   0.239   3.977 -0.4883 -0.2906 -0.2081
 2771SOL    HW1 8629   0.430   0.166   3.954  0.9951  0.9308 -0.5828
 2771SOL    HW2 8630   0.293   0.224   3.926  0.3098 -0.9325 -1.3050
 2772SOL     OW 8631   4.918   1.674   5.315  0.4871  0.1234 -0.2584
 2772SOL    HW1 8632   5.005   1.711   5.299  0.5977 -0.2109 -0.4598
 2772SOL    HW2 8633   4.918   1.592   5.265 -0.3891  0.7172 -1.2699
 2773SOL     OW 8634   0.296   4.595   2.942 -0.2510 -0.0899  0.5675
 2773SOL    HW1 8635   0.326   4.680   2.973  1.8105 -0.4433 -0.3421
 2773SOL    HW2 8636   0.228   4.616   2.877  1.4040  0.9591 -0.9008
 2774SOL     OW 8637   0.612   3.046   2.855  0.2581 -0.1853 -0.7445
 2774SOL    HW1 8638   0.538   3.028   2.797 -0.1471 -0.1709 -0.2494
 2774SOL    HW2 8639   0.666   3.109   2.807 -1.4555  1.9574 -0.0639
 2775SOL     OW 8640   2.725   5.475   0.591  0.1241 -0.3608  0.3724
 2775SOL    HW1 8641   2.793   5.407   0.593 -1.5275 -2.0823  1.5091
 2775SOL    HW2 8642   2.675   5.461   0.672 -0.2940  2.2710  0.6685
 2776SOL     OW 8643   3.973   1.988   1.550  0.1464  0.2947 -0.1798
 2776SOL    HW1 8644   3.927   1.939   1.482  1.8791  2.1242 -2.8583
 2776SOL    HW2 8645   4.063   1.955   1.547  0.7256  1.8093 -0.2330
 2777SOL     OW 8646   4.646   3.780   4.073 -0.1332  0.2729  0.2445
 2777SOL    HW1 8647   4.700   3.857   4.053  0.1264 -0.1564 -0.7958
 2777SOL    HW2 8648   4.558   3.804   4.043 -0.1112  0.2685  0.1753
 2778SOL     OW 8649   3.112   1.691   5.200  0.1741  0.1048 -0.2356
 2778SOL    HW1 8650   3.120   1.748   5.124  1.2882  0.2370 -0.0366
 2778SOL    HW2 8651   3.160   1.612   5.176  0.4137  0.0908  0.2846
 2779SOL     OW 8652   1.511   1.545   0.044 -0.3280 -0.1513  0.2637
 2779SOL    HW1 8653   1.464   1.596   0.109 -0.7744  0.1313 -0.2719
 2779SOL    HW2 8654   1.557   1.610  -0.010  1.8529 -0.4718  1.6301
 2780SOL     OW 8655   0.773   4.784   2.958 -0.0064  0.4057  0.8048
 2780SOL    HW1 8656   0.844   4.829   2.913  1.8361 -1.7874  1.3383
 2780SOL    HW2 8657   0.790   4.797   3.051 -0.8890  0.6938  0.9353
 2781SOL     OW 8658   4.355   4.125   1.929 -0.1238 -0.8562  0.1457
 2781SOL    HW1 8659   4.417   4.139   2.001  0.1912 -0.7290 -0.1458
 2781SOL    HW2 8660   4.306   4.047   1.954  0.5218 -1.2672  0.1259
 2782SOL     OW 8661   5.392   3.872   3.489  0.6069 -0.4926  0.6109
 2782SOL    HW1 8662   5.394   3.967   3.483  1.1947 -0.5224  0.1357
 2782SOL    HW2 8663   5.306   3.851   3.525  0.4039  0.2087  0.5446
 2783SOL     OW 8664   2.851   3.701   3.713  0.5092 -0.1033 -0.3681
 2783SOL    HW1 8665   2.775   3.664   3.758  0.3178  0.8204  0.0814
 2783SOL    HW2 8666   2.825   3.704   3.621  0.6321 -1.3253 -0.4605
 2784SOL     OW 8667   1.748   1.428   0.451 -0.4325  0.5455 -0.4615
 2784SOL    HW1 8668   1.760   1.362   0.519 -0.0523  1.6430  0.5667
 2784SOL    HW2 8669   1.693   1.385   0.385  0.4483 -1.0423 -0.1995
 2785SOL     OW 8670   4.701   1.999   3.454  0.2209  0.2689  0.2404
 2785SOL    HW1 8671   4.646   2.020   3.529 -0.1084 -2.8478  0.9990
 2785SOL    HW2 8672   4.652   2.034   3.379 -1.6255 -0.2895  1.1132
 2786SOL     OW 8673   2.429   2.618   5.259 -0.1241 -0.1944  0.7934
 2786SOL    HW1 8674   2.431   2.615   5.163 -0.7633 -2.4201  0.7824
 2786SOL    HW2 8675   2.417   2.710   5.280  0.4772  0.4076 -1.2485
 2787SOL     OW 8676   2.761   3.496   2.482 -0.2186 -0.7127  0.1919
 2787SOL    HW1 8677   2.791   3.571   2.431  0.1408 -1.3238 -0.5120
 2787SOL    HW2 8678   2.803   3.420   2.441  1.4716 -1.0964  2.4176
 2788SOL     OW 8679   4.375   2.080   3.897 -0.2376  0.1829  0.0446
 2788SOL    HW1 8680   4.352   2.173   3.901 -1.2401 -0.0851  0.7444
 2788SOL    HW2 8681   4.417   2.070   3.811  0.0111  1.3007  0.0168
 2789SOL     OW 8682   2.245   2.168   5.324  0.3578  0.7515  0.3030
 2789SOL    HW1 8683   2.222   2.155   5.416  0.6460  1.2026  0.4394
 2789SOL    HW2 8684   2.254   2.079   5.289 -2.9978  0.4234 -0.1295
 2790SOL     OW 8685   0.715   0.701   1.651 -0.0128 -0.1148  0.4683
 2790SOL    HW1 8686   0.777   0.689   1.579 -0.9142 -0.1567 -0.3262
 2790SOL    HW2 8687   0.645   0.754   1.613 -0.4955 -0.1237  1.3316
 2791SOL     OW 8688   5.033   5.045   4.754  0.3974  0.2239 -0.2935
 2791SOL    HW1 8689   4.947   5.029   4.715  0.4731  0.3627 -0.5142
 2791SOL    HW2 8690   5.023   5.016   4.845  0.0339  0.4899 -0.2445
 2792SOL     OW 8691   2.312   4.171   0.786 -0.3713  0.2250  0.1360
 2792SOL    HW1 8692   2.263   4.100   0.827  1.3874 -0.4647  1.1585
 2792SOL    HW2 8693   2.311   4.150   0.692 -0.3909 -0.8149  0.3620
 2793SOL     OW 8694   2.785   3.076   0.676  0.0861 -0.1287  0.1136
 2793SOL    HW1 8695   2.730   3.109   0.604 -0.3391 -0.8895  0.0785
 2793SOL    HW2 8696   2.730   3.010   0.720 -0.1152  1.1099  1.8519
 2794SOL     OW 8697   4.008   0.421   2.843  0.0113 -0.1896  0.0730
 2794SOL    HW1 8698   4.026   0.499   2.790  0.8375  0.0883  0.7430
 2794SOL    HW2 8699   4.082   0.415   2.903 -0.3649 -1.1307  0.4634
 2795SOL     OW 8700   1.815   1.427   5.116  0.7372  0.0767  0.4079
 2795SOL    HW1 8701   1.826   1.404   5.208  0.2720  2.0150  0.9990
 2795SOL    HW2 8702   1.731   1.387   5.092  0.8335 -0.3979  0.8489
 2796SOL     OW 8703   2.561   4.367   0.680 -0.1131 -0.0291 -0.6381
 2796SOL    HW1 8704   2.613   4.447   0.680 -1.6579  1.0137 -0.1001
 2796SOL    HW2 8705   2.542   4.351   0.587 -1.2581  1.2409 -0.6456
 2797SOL     OW 8706   1.551   3.286   2.748 -0.5204  0.4903  0.5713
 2797SOL    HW1 8707   1.455   3.282   2.755 -0.7081  1.7117 -0.7873
 2797SOL    HW2 8708   1.583   3.232   2.820 -2.2447 -1.2672  0.1041
 2798SOL     OW 8709   3.757   0.659   0.221 -0.0854 -0.4997 -0.0081
 2798SOL    HW1 8710   3.680   0.677   0.274 -1.5579 -0.9000 -1.8876
 2798SOL    HW2 8711   3.722   0.616   0.143  2.1182 -1.1811 -0.6790
 2799SOL     OW 8712   4.744   0.906   2.106  0.1627 -0.2230  0.0327
 2799SOL    HW1 8713   4.815   0.967   2.126 -0.8514  1.5796 -1.5101
 2799SOL    HW2 8714   4.693   0.900   2.187  0.8390  0.1849  0.4975
 2800SOL     OW 8715   0.133   2.508   1.105  0.1659 -0.3110  0.0212
 2800SOL    HW1 8716   0.079   2.431   1.085  0.2427 -0.4192  0.2337
 2800SOL    HW2 8717   0.216   2.473   1.136 -0.0356 -0.1504  0.7799
 2801SOL     OW 8718   1.898   0.174   0.605 -0.5166 -0.6573  0.0053
 2801SOL    HW1 8719   1.968   0.181   0.541 -1.5702  0.8001 -1.0697
 2801SOL    HW2 8720   1.834   0.115   0.565 -1.5804  0.9287 -0.7752
 2802SOL     OW 8721   1.109   2.718   0.551  0.5175 -0.1983 -0.5869
 2802SOL    HW1 8722   1.176   2.731   0.619  0.5733  0.3249 -0.7360
 2802SOL    HW2 8723   1.070   2.633   0.572  3.1454 -1.9433 -2.1177
 2803SOL     OW 8724   2.518   1.906   3.289 -0.3667 -0.0853 -0.3052
 2803SOL    HW1 8725   2.596   1.860   3.319  0.6213  0.2264 -2.2429
 2803SOL    HW2 8726   2.448   1.875   3.347  1.0272 -0.9424  0.9920
 2804SOL     OW 8727   0.069   4.650   2.770 -0.0164 -0.4585 -0.3877
 2804SOL    HW1 8728   0.004   4.590   2.807 -0.9996  0.0636 -1.2210
 2804SOL    HW2 8729   0.098   4.606   2.689  0.2772 -0.4354 -0.2978
 2805SOL     OW 8730   1.847   3.557   4.813 -0.0003 -0.2810 -0.0783
 2805SOL    HW1 8731   1.755   3.574   4.793  0.3972  0.3225 -1.5646
 2805SOL    HW2 8732   1.866   3.474   4.769 -0.0651 -0.8734  1.0021
 2806SOL     OW 8733   2.083   2.700   1.722  0.8112  0.4204 -0.2210
 2806SOL    HW1 8734   1.993   2.670   1.717 -0.1472  3.0036  0.1756
 2806SOL    HW2 8735   2.125   2.663   1.644  0.2147 -3.0531  0.9610
 2807SOL     OW 8736   4.386   4.121   3.512 -0.5107 -0.1983 -0.0063
 2807SOL    HW1 8737   4.296   4.095   3.495 -0.4907  1.1162 -2.5223
 2807SOL    HW2 8738   4.391   4.212   3.483  1.6186 -0.1984  0.1659
 2808SOL     OW 8739   1.160   0.741   0.531  0.1033  0.3900  0.0301
 2808SOL    HW1 8740   1.155   0.799   0.454  0.1438 -2.0513 -1.9392
 2808SOL    HW2 8741   1.085   0.683   0.522  1.5434 -1.6258  0.3575
 2809SOL     OW 8742   0.439   0.081   2.977  0.3152  0.2250  0.2138
 2809SOL    HW1 8743   0.509   0.025   2.944  0.6491  0.1502  1.0354
 2809SOL    HW2 8744   0.454   0.086   3.071 -3.8258 -4.1501  1.4742
 2810SOL     OW 8745   3.524   2.906   1.663 -0.2661 -0.7455 -0.6226
 2810SOL    HW1 8746   3.465   2.849   1.614 -0.8070  1.3309 -2.5470
 2810SOL    HW2 8747   3.498   2.894   1.754 -0.7689 -3.0305 -1.0089
 2811SOL     OW 8748   5.316   3.287   1.296  0.6233  0.1158 -0.2175
 2811SOL    HW1 8749   5.239   3.342   1.281  0.5719  0.0139 -0.3283
 2811SOL    HW2 8750   5.287   3.223   1.361  0.4458 -0.2653 -0.6624
 2812SOL     OW 8751   4.744   4.791   4.912  0.1734  0.6216 -0.4395
 2812SOL    HW1 8752   4.717   4.702   4.931  0.2243  0.4690 -1.0560
 2812SOL    HW2 8753   4.665   4.835   4.881  0.6530  0.0803 -2.5718
 2813SOL     OW 8754   2.556   0.888   2.078 -0.8324  0.2980  0.2543
 2813SOL    HW1 8755   2.506   0.968   2.094  2.5392  2.8171 -0.5570
 2813SOL    HW2 8756   2.599   0.903   1.994  0.7984 -1.8715  0.6151
 2814SOL     OW 8757   0.219   2.669   1.646 -0.4846 -0.1121 -0.3937
 2814SOL    HW1 8758   0.208   2.741   1.708 -0.5627  0.1567 -0.7153
 2814SOL    HW2 8759   0.146   2.610   1.664 -0.8886  0.2973 -0.6751
 2815SOL     OW 8760   2.614   2.456   4.649 -0.2372 -0.1816 -0.4826
 2815SOL    HW1 8761   2.641   2.495   4.732 -0.7801  0.1969 -0.4810
 2815SOL    HW2 8762   2.685   2.395   4.627  0.9578  1.2715 -0.8262
 2816SOL     OW 8763   1.951   4.878   4.303  0.3096 -0.7286  0.7471
 2816SOL    HW1 8764   1.989   4.880   4.216  0.4259  1.1915  0.8072
 2816SOL    HW2 8765   2.021   4.843   4.359  2.6249  3.6962  1.0490
 2817SOL     OW 8766   0.647   3.955   0.309 -0.0203 -0.7656 -0.4889
 2817SOL    HW1 8767   0.657   4.037   0.359 -0.8816 -0.1758 -1.2556
 2817SOL    HW2 8768   0.613   3.893   0.373  0.5534 -0.5091  0.0838
 2818SOL     OW 8769   4.469   4.708   0.004 -0.5670 -0.2836 -0.5029
 2818SOL    HW1 8770   4.523   4.644  -0.042  0.1144 -0.5994  0.6919
 2818SOL    HW2 8771   4.379   4.678  -0.009 -0.2375 -1.7391  0.4020
 2819SOL     OW 8772   3.717   3.587   0.620  0.2977 -0.1332 -0.0547
 2819SOL    HW1 8773   3.689   3.678   0.630 -1.3836 -0.5824 -0.3788
 2819SOL    HW2 8774   3.807   3.586   0.653  0.1140  1.4926  0.5988
 2820SOL     OW 8775   2.230   2.490   3.751  0.2521 -0.4800  0.1587
 2820SOL    HW1 8776   2.203   2.466   3.662 -1.0382  0.7156  0.1955
 2820SOL    HW2 8777   2.151   2.525   3.792  0.7953 -1.1080  1.8344
 2821SOL     OW 8778   3.627   2.510   3.024 -0.2234 -0.0199 -0.2043
 2821SOL    HW1 8779   3.652   2.581   3.083 -0.2734  2.6465 -3.1337
 2821SOL    HW2 8780   3.703   2.453   3.021  0.6052  0.9899  0.7218
 2822SOL     OW 8781   2.158   3.495   1.907 -0.2081 -0.6206 -0.2373
 2822SOL    HW1 8782   2.249   3.509   1.881  0.3668 -1.9198  0.9248
 2822SOL    HW2 8783   2.143   3.402   1.892 -1.6463 -0.2457 -1.2399
 2823SOL     OW 8784   4.159   4.717   3.282  0.3519  0.1572 -0.5640
 2823SOL    HW1 8785   4.168   4.765   3.364 -1.9142  1.7185 -1.1380
 2823SOL    HW2 8786   4.207   4.771   3.218  2.1831 -1.0973 -0.3360
 2824SOL     OW 8787   2.907   2.258   3.707 -0.0127 -0.2024  0.0469
 2824SOL    HW1 8788   2.820   2.291   3.682 -0.6248  1.1766  3.5361
 2824SOL    HW2 8789   2.956   2.336   3.732  2.6415 -0.8509 -2.5205
 2825SOL     OW 8790   1.060   5.505   0.126  0.5413 -0.2241 -0.4120
 2825SOL    HW1 8791   0.989   5.548   0.174 -0.5540 -0.6059 -1.6296
 2825SOL    HW2 8792   1.043   5.525   0.034  1.4785 -1.1238 -0.8128
 2826SOL     OW 8793   4.225   5.009   4.898 -0.3695  0.0106 -0.0896
 2826SOL    HW1 8794   4.278   5.045   4.827  1.2751 -1.6714  0.2015
 2826SOL    HW2 8795   4.144   4.979   4.855 -0.7069  1.7266 -0.7124
 2827SOL     OW 8796   2.071   5.425   2.007 -0.2717 -0.1000 -0.1327
 2827SOL    HW1 8797   2.141   5.487   1.986  0.2814 -1.3543 -2.3333
 2827SOL    HW2 8798   2.057   5.377   1.926 -1.7467 -1.8052  1.0620
 2828SOL     OW 8799   1.045   4.329   2.746  0.5090  0.2225  0.1487
 2828SOL    HW1 8800   1.039   4.331   2.842 -0.1396  0.6468  0.1081
 2828SOL    HW2 8801   0.979   4.392   2.717 -0.3522 -0.9876 -0.6052
 2829SOL     OW 8802   2.364   0.895   4.434 -0.4064  0.0296 -0.3698
 2829SOL    HW1 8803   2.334   0.885   4.343  1.0344  1.0659 -1.0137
 2829SOL    HW2 8804   2.422   0.971   4.431 -1.8898  1.3677  1.8356
 2830SOL     OW 8805   2.051   1.289   4.685 -0.3078  0.6425 -0.7878
 2830SOL    HW1 8806   1.971   1.284   4.737  0.4402  1.3706  0.4768
 2830SOL    HW2 8807   2.062   1.201   4.649 -0.1684 -0.2745  1.3482
 2831SOL     OW 8808   1.154   4.925   0.532 -0.2809 -0.2731 -0.0652
 2831SOL    HW1 8809   1.114   4.842   0.556 -2.3483  0.3587 -1.1222
 2831SOL    HW2 8810   1.145   4.930   0.437  1.1622  0.5077 -0.1906
 2832SOL     OW 8811   4.018   3.218   4.529  0.3764 -0.7362  0.0713
 2832SOL    HW1 8812   3.960   3.180   4.595  0.4498 -3.4170 -1.2689
 2832SOL    HW2 8813   4.098   3.241   4.577 -1.1433  1.6866  1.6678
 2833SOL     OW 8814   1.839   4.002   0.599  0.5423 -0.2492 -0.1218
 2833SOL    HW1 8815   1.796   4.045   0.525 -0.0418 -1.0751 -0.2701
 2833SOL    HW2 8816   1.767   3.970   0.653  0.9131  1.8630  1.7440
 2834SOL     OW 8817   4.065   3.722   1.467 -0.3905 -0.0050 -0.3333
 2834SOL    HW1 8818   4.129   3.717   1.396 -0.4642  2.8322 -0.7023
 2834SOL    HW2 8819   3.982   3.700   1.426 -0.0464 -1.1250 -0.4553
 2835SOL     OW 8820   3.947   1.867   3.837 -0.2755  0.4999 -0.2884
 2835SOL    HW1 8821   3.979   1.948   3.798 -2.0042  1.1631 -0.4137
 2835SOL    HW2 8822   3.998   1.858   3.919 -1.2860  2.7000  0.6456
 2836SOL     OW 8823   3.670   3.800   2.778 -0.4422  0.0382  0.2782
 2836SOL    HW1 8824   3.713   3.736   2.722 -0.9315 -0.5756  0.5951
 2836SOL    HW2 8825   3.633   3.749   2.850 -0.6301  0.7022  0.6630
 2837SOL     OW 8826   2.316   4.142   4.908 -0.0867 -0.0960 -0.5807
 2837SOL    HW1 8827   2.401   4.186   4.898 -0.3597  1.2304  2.1543
 2837SOL    HW2 8828   2.335   4.068   4.966 -0.7619  0.0376 -0.1910
 2838SOL     OW 8829   0.534   3.724   0.853  0.0973 -0.0939  0.3163
 2838SOL    HW1 8830   0.463   3.770   0.897  0.5919  0.1708  0.8529
 2838SOL    HW2 8831   0.493   3.645   0.818 -0.5509  0.2677  0.2335
 2839SOL     OW 8832   3.221   4.002   3.199  0.0021  0.1099 -0.1094
 2839SOL    HW1 8833   3.296   3.981   3.253  0.1600 -1.7165 -0.9794
 2839SOL    HW2 8834   3.257   4.055   3.127  0.0447  1.2041  0.6993
 2840SOL     OW 8835   4.638   4.503   1.092  0.2052  0.2586  0.2935
 2840SOL    HW1 8836   4.666   4.538   1.007 -2.6724  1.0900 -0.4419
 2840SOL    HW2 8837   4.669   4.412   1.092  2.3470  0.9337 -0.5501
 2841SOL     OW 8838   3.825   1.249   0.836 -0.0015  0.7963  0.1592
 2841SOL    HW1 8839   3.876   1.275   0.912 -0.8130 -0.7356  1.2831
 2841SOL    HW2 8840   3.850   1.310   0.767  1.5028  1.5805  1.3692
 2842SOL     OW 8841   1.805   4.071   4.323  0.6720  0.1035  0.4861
 2842SOL    HW1 8842   1.764   4.141   4.374  4.0023  1.7864  1.1995
 2842SOL    HW2 8843   1.734   4.011   4.303 -2.3172  3.3382  0.3805
 2843SOL     OW 8844   2.265   3.307   0.854  0.0960 -0.1623  0.0584
 2843SOL    HW1 8845   2.277   3.309   0.949 -2.3351 -0.6912  0.4354
 2843SOL    HW2 8846   2.281   3.397   0.826  0.2979  0.1233  1.0434
 2844SOL     OW 8847   5.501   0.216   1.912 -0.3063 -0.3909 -0.6433
 2844SOL    HW1 8848   5.595   0.214   1.926 -0.4618 -0.5439  0.4793
 2844SOL    HW2 8849   5.478   0.125   1.891 -0.1834 -0.3234 -1.0701
 2845SOL     OW 8850   4.523   1.464   3.613 -0.8847 -0.3606  0.1452
 2845SOL    HW1 8851   4.454   1.458   3.679 -0.7941  0.8447  0.3746
 2845SOL    HW2 8852   4.604   1.466   3.663 -0.8016  0.2598 -0.0002
 2846SOL     OW 8853   5.204   0.343   5.165  0.3301  0.1850 -0.1103
 2846SOL    HW1 8854   5.244   0.323   5.081  2.4898 -1.2139  1.1556
 2846SOL    HW2 8855   5.154   0.264   5.188 -0.7420  0.7836 -0.3067
 2847SOL     OW 8856   2.760   0.369   2.288 -0.0172 -0.4334 -0.4407
 2847SOL    HW1 8857   2.718   0.408   2.365 -0.8150 -0.4076 -0.8714
 2847SOL    HW2 8858   2.852   0.394   2.295 -0.2605  0.3662  0.0117
 2848SOL     OW 8859   1.953   1.164   1.000 -0.2873 -0.0903  0.2497
 2848SOL    HW1 8860   2.022   1.182   1.063  0.3399 -0.3265 -0.3564
 2848SOL    HW2 8861   1.890   1.110   1.048  0.2773 -0.4322  0.6164
 2849SOL     OW 8862   5.388   2.574   1.440  0.7144  0.1553  0.3689
 2849SOL    HW1 8863   5.365   2.555   1.531 -0.7558  0.2026  0.0246
 2849SOL    HW2 8864   5.390   2.670   1.436  0.0991  0.1658  0.2021
 2850SOL     OW 8865   4.876   4.806   4.033 -0.5287 -0.6830  0.5458
 2850SOL    HW1 8866   4.957   4.856   4.025 -1.2249  0.6002  1.0532
 2850SOL    HW2 8867   4.837   4.838   4.115 -1.7595 -0.9318  0.0796
 2851SOL     OW 8868   4.905   2.127   5.473 -0.6833  0.4076  0.4073
 2851SOL    HW1 8869   4.967   2.105   5.543 -1.6197  1.0426  1.4709
 2851SOL    HW2 8870   4.861   2.206   5.505  0.0549  1.7178 -1.6715
 2852SOL     OW 8871   4.363   4.425   1.109 -0.4553  0.4246 -0.3381
 2852SOL    HW1 8872   4.373   4.330   1.122 -1.9294  0.2233 -0.5708
 2852SOL    HW2 8873   4.452   4.459   1.120  0.2748 -1.0861 -1.1804
 2853SOL     OW 8874   4.122   4.114   2.862  0.2618  0.1082  0.2662
 2853SOL    HW1 8875   4.175   4.088   2.937  0.2621  0.1019  0.2640
 2853SOL    HW2 8876   4.034   4.081   2.882  0.2550  0.1335  0.2779
 2854SOL     OW 8877   1.195   3.019   0.646  0.0550  0.5332 -0.7745
 2854SOL    HW1 8878   1.222   2.964   0.720  1.3118  0.1803 -1.4688
 2854SOL    HW2 8879   1.101   3.005   0.639 -0.2150  1.0366  1.1366
 2855SOL     OW 8880   1.012   2.118   3.502  0.4205 -0.1286  0.1986
 2855SOL    HW1 8881   0.993   2.104   3.409 -1.0860  1.5314  0.1943
 2855SOL    HW2 8882   0.945   2.069   3.549  0.1965  0.3309  0.3652
 2856SOL     OW 8883   0.869   3.267   2.927  0.0263 -0.5259 -0.3296
 2856SOL    HW1 8884   0.886   3.239   2.837  1.0608 -0.0710 -0.2866
 2856SOL    HW2 8885   0.788   3.318   2.920 -0.6643 -1.6341 -0.7601
 2857SOL     OW 8886   0.695   2.484   3.448  0.4110 -0.4626 -0.0260
 2857SOL    HW1 8887   0.663   2.439   3.526 -0.7324  0.7883  0.2506
 2857SOL    HW2 8888   0.653   2.438   3.375 -0.8274  0.1958  0.2594
 2858SOL     OW 8889   2.974   1.212   3.789 -0.2822  0.0707  0.6160
 2858SOL    HW1 8890   2.987   1.118   3.777  0.0292  0.2933 -0.9921
 2858SOL    HW2 8891   3.044   1.253   3.738 -0.7945  1.1829  0.7761
 2859SOL     OW 8892   1.308   0.298   2.142  0.3422 -0.4282 -0.0010
 2859SOL    HW1 8893   1.317   0.350   2.063  0.0808 -0.5229 -0.0962
 2859SOL    HW2 8894   1.369   0.225   2.130  0.0097 -0.6620 -0.2992
 2860SOL     OW 8895   3.549   5.310   5.262 -0.3213  0.5210 -0.3665
 2860SOL    HW1 8896   3.456   5.298   5.280 -0.3985 -1.4833 -1.7589
 2860SOL    HW2 8897   3.586   5.222   5.266  0.8894  0.8355 -2.8374
 2861SOL     OW 8898   2.710   0.922   5.223  0.4279 -0.7187 -0.4325
 2861SOL    HW1 8899   2.737   0.906   5.133  0.4576 -2.5274 -0.1450
 2861SOL    HW2 8900   2.673   1.010   5.222 -2.1144 -1.6472 -2.8620
 2862SOL     OW 8901   2.776   2.277   5.130 -0.1648  0.0295  0.4304
 2862SOL    HW1 8902   2.717   2.276   5.205  0.9762 -0.4932  1.3580
 2862SOL    HW2 8903   2.863   2.289   5.168  0.7389 -2.5333 -0.5507
 2863SOL     OW 8904   0.766   1.140   3.870  0.1684  0.0296  0.3754
 2863SOL    HW1 8905   0.757   1.221   3.819 -1.0773 -0.8368 -0.8461
 2863SOL    HW2 8906   0.678   1.103   3.872  0.3165 -0.2989  2.6652
 2864SOL     OW 8907   1.642   1.827   4.734 -0.1437 -0.6975 -0.4106
 2864SOL    HW1 8908   1.584   1.838   4.659 -1.0250 -0.7115  0.2598
 2864SOL    HW2 8909   1.613   1.747   4.777 -1.1723  0.4816  1.2436
 2865SOL     OW 8910   1.624   4.108   1.300  0.4350  0.4679 -0.0915
 2865SOL    HW1 8911   1.706   4.093   1.348  1.8535  0.7173 -2.2637
 2865SOL    HW2 8912   1.568   4.035   1.325  2.2122 -1.0411 -0.3093
 2866SOL     OW 8913   4.826   4.448   3.645  0.8949 -0.1250  0.2109
 2866SOL    HW1 8914   4.910   4.492   3.628  1.0314 -0.6099 -0.3854
 2866SOL    HW2 8915   4.779   4.509   3.703  1.4563  0.3762  0.1525
 2867SOL     OW 8916   1.885   1.423   1.745  0.1433 -0.2143  0.0006
 2867SOL    HW1 8917   1.865   1.372   1.666  0.6078  1.0867 -0.9893
 2867SOL    HW2 8918   1.801   1.431   1.790 -0.3072 -0.2597 -0.8047
 2868SOL     OW 8919   5.011   1.651   4.326 -0.2051 -0.2898  0.2088
 2868SOL    HW1 8920   4.958   1.671   4.249 -1.9268 -1.3380  1.0550
 2868SOL    HW2 8921   5.033   1.559   4.317 -2.0080 -0.9366  1.8080
 2869SOL     OW 8922   0.726   2.239   0.770  0.0911  0.2758  0.5839
 2869SOL    HW1 8923   0.821   2.250   0.762  0.0161 -0.3655 -1.8114
 2869SOL    HW2 8924   0.715   2.167   0.832  1.4323 -2.8806 -2.5020
 2870SOL     OW 8925   3.288   1.377   4.626  0.5008  0.4405 -0.3908
 2870SOL    HW1 8926   3.271   1.413   4.539 -0.6417 -0.4864 -0.5749
 2870SOL    HW2 8927   3.351   1.307   4.610  1.3533  1.1632 -0.2698
 2871SOL     OW 8928   5.301   1.157   4.780  0.4247 -0.0818 -0.3072
 2871SOL    HW1 8929   5.348   1.104   4.715 -0.1642 -0.4268 -0.4593
 2871SOL    HW2 8930   5.291   1.243   4.739 -0.8051 -0.5778 -1.0811
 2872SOL     OW 8931   2.972   2.085   4.567 -0.2830  0.4087  0.2929
 2872SOL    HW1 8932   2.966   2.021   4.497 -1.0954  1.3741 -0.5560
 2872SOL    HW2 8933   3.054   2.132   4.550  1.0330 -1.2452  1.7084
 2873SOL     OW 8934   1.222   0.695   2.342 -0.6202 -0.3606  0.2944
 2873SOL    HW1 8935   1.237   0.775   2.291  0.3750  0.4103  1.7220
 2873SOL    HW2 8936   1.128   0.681   2.337 -0.5866 -0.2425 -1.5966
 2874SOL     OW 8937   0.555   1.816   3.594 -0.7721 -0.7303  0.3649
 2874SOL    HW1 8938   0.517   1.828   3.680 -1.3697  0.8251 -0.0861
 2874SOL    HW2 8939   0.618   1.744   3.605 -3.5413 -3.2526  1.1936
 2875SOL     OW 8940   5.389   2.278   1.545  0.0039  0.0495  0.0499
 2875SOL    HW1 8941   5.455   2.345   1.529  0.2544  0.2536  1.6863
 2875SOL    HW2 8942   5.438   2.196   1.547  0.3019  0.2272  1.5206
 2876SOL     OW 8943   3.418   4.370   4.374 -0.3406 -0.0885  0.2370
 2876SOL    HW1 8944   3.470   4.380   4.454 -2.2777  0.4292  1.5074
 2876SOL    HW2 8945   3.442   4.284   4.341 -2.3138 -2.1907  3.6538
 2877SOL     OW 8946   4.115   0.922   5.460  0.0829 -0.0832  0.1848
 2877SOL    HW1 8947   4.171   0.883   5.527 -0.3183 -0.3107  0.3899
 2877SOL    HW2 8948   4.050   0.855   5.441 -0.0841  0.1550 -0.1011
 2878SOL     OW 8949   0.050   4.931   1.369 -0.9490  0.2912 -0.5703
 2878SOL    HW1 8950   0.093   4.859   1.416 -0.0890  0.9804 -0.2679
 2878SOL    HW2 8951   0.028   4.895   1.283  0.6856  0.0549 -0.9121
 2879SOL     OW 8952   1.860   3.224   5.070  0.2716 -0.2154 -0.6137
 2879SOL    HW1 8953   1.892   3.139   5.099 -1.5014 -0.7410 -0.0291
 2879SOL    HW2 8954   1.851   3.216   4.975 -0.9870 -1.1241 -0.4413
 2880SOL     OW 8955   1.946   2.640   0.752 -0.0919 -0.2828 -0.3704
 2880SOL    HW1 8956   1.944   2.574   0.683  1.4480 -0.7356 -0.0021
 2880SOL    HW2 8957   2.008   2.706   0.721 -0.3808  0.1811  0.0089
 2881SOL     OW 8958   2.277   5.286   1.060 -0.1008 -0.2272 -0.2001
 2881SOL    HW1 8959   2.310   5.338   1.133  0.5288 -1.1812  0.2229
 2881SOL    HW2 8960   2.353   5.236   1.030 -0.8928 -1.7010  0.1326
 2882SOL     OW 8961   1.215   3.036   4.150 -0.4597  0.1383 -0.5047
 2882SOL    HW1 8962   1.129   3.078   4.139 -0.6997  0.1800  1.2184
 2882SOL    HW2 8963   1.197   2.942   4.147 -0.1447  0.0803 -2.7582
 2883SOL     OW 8964   3.947   4.913   3.190  0.0795  0.1497 -0.0514
 2883SOL    HW1 8965   4.042   4.921   3.198  0.1957 -0.8947 -0.2969
 2883SOL    HW2 8966   3.915   5.004   3.191  0.9679  0.4714  1.2765
 2884SOL     OW 8967   5.084   4.383   2.185  0.2563  0.7231  0.0073
 2884SOL    HW1 8968   5.173   4.373   2.150 -0.9046 -1.7461 -2.6493
 2884SOL    HW2 8969   5.089   4.346   2.273  1.4009 -2.0420 -1.0988
 2885SOL     OW 8970   1.536   4.159   4.925  0.1770 -0.4322  0.3208
 2885SOL    HW1 8971   1.571   4.115   5.003 -0.8872 -2.1689 -0.1355
 2885SOL    HW2 8972   1.442   4.168   4.942  0.4306  2.5295  0.7529
 2886SOL     OW 8973   3.361   3.453   0.764  0.6754 -1.1846 -0.0394
 2886SOL    HW1 8974   3.390   3.462   0.855 -0.7639  0.6377  0.3012
 2886SOL    HW2 8975   3.266   3.442   0.771  0.0315  2.3230 -1.3519
 2887SOL     OW 8976   5.276   3.950   1.671 -0.2808  0.1332  0.9383
 2887SOL    HW1 8977   5.198   4.000   1.695 -1.5977 -1.6928  0.6317
 2887SOL    HW2 8978   5.278   3.878   1.734  1.6977  0.6187  1.5028
 2888SOL     OW 8979   4.798   3.716   3.125  0.3914 -0.2412  0.8365
 2888SOL    HW1 8980   4.733   3.671   3.178  2.2053 -2.3850  1.3994
 2888SOL    HW2 8981   4.782   3.684   3.036 -1.6257  2.1357  0.2314
 2889SOL     OW 8982   3.952   2.425   5.331  0.6300 -0.3174  0.1124
 2889SOL    HW1 8983   3.865   2.386   5.336  0.3325  0.3699  0.3941
 2889SOL    HW2 8984   4.012   2.351   5.338  0.0755 -0.7328  0.5669
 2890SOL     OW 8985   5.066   4.471   1.292 -0.6132  0.2549 -0.1436
 2890SOL    HW1 8986   5.101   4.440   1.209  0.8117  0.0313  0.5199
 2890SOL    HW2 8987   5.033   4.391   1.335  0.2378  0.0988  0.2378
 2891SOL     OW 8988   3.290   0.908   2.490  0.0218 -0.6200  0.2365
 2891SOL    HW1 8989   3.377   0.868   2.496 -0.3464 -1.6935 -1.0943
 2891SOL    HW2 8990   3.243   0.872   2.566  0.3184 -1.1466  0.1801
 2892SOL     OW 8991   3.639   2.073   1.339 -0.1640  0.1207 -0.1551
 2892SOL    HW1 8992   3.724   2.118   1.343 -0.5812  0.9743 -0.5195
 2892SOL    HW2 8993   3.575   2.144   1.344 -0.8878 -0.5919  1.2945
 2893SOL     OW 8994   0.438   1.820   3.854  0.0547 -0.0152  0.4278
 2893SOL    HW1 8995   0.387   1.758   3.906  3.2226  0.0821  4.0266
 2893SOL    HW2 8996   0.399   1.905   3.874 -0.4110 -0.2255  0.4424
 2894SOL     OW 8997   0.780   4.139   1.882 -0.0124  0.1032 -0.1935
 2894SOL    HW1 8998   0.765   4.072   1.815  0.2440 -0.9138  0.7363
 2894SOL    HW2 8999   0.693   4.158   1.917  0.0967 -1.2014  0.8771
 2895SOL     OW 9000   5.163   2.560   3.205  0.8098  0.2829  0.3722
 2895SOL    HW1 9001   5.098   2.522   3.146  0.0516 -1.0944  2.0326
 2895SOL    HW2 9002   5.124   2.642   3.234 -0.2037 -0.4923  1.2899
 2896SOL     OW 9003   3.803   4.851   2.311 -0.1025  0.5015  0.0726
 2896SOL    HW1 9004   3.852   4.822   2.388 -0.9188 -0.3328  0.2923
 2896SOL    HW2 9005   3.715   4.814   2.322 -0.6276  1.4842 -0.6007
 2897SOL     OW 9006   3.245   4.017   2.191 -0.2625  0.5050 -0.0702
 2897SOL    HW1 9007   3.255   4.053   2.279 -0.8134 -0.4189  0.3904
 2897SOL    HW2 9008   3.244   4.093   2.133  1.1039  1.0793  0.6215
 2898SOL     OW 9009   2.978   2.699   5.062  0.3585  0.7213  0.7324
 2898SOL    HW1 9010   2.911   2.660   5.006  0.8801 -0.3780  0.8428
 2898SOL    HW2 9011   2.930   2.732   5.139  0.1376 -2.1068  1.9175
 2899SOL     OW 9012   4.698   2.288   4.223 -0.4189  0.7744  0.2166
 2899SOL    HW1 9013   4.666   2.208   4.182  0.3172  1.0467 -0.9157
 2899SOL    HW2 9014   4.631   2.310   4.288 -0.9810 -0.3540  0.0365
 2900SOL     OW 9015   1.035   3.708   3.846  0.4341 -0.1833 -0.5930
 2900SOL    HW1 9016   1.050   3.616   3.864  1.4116 -0.0471 -0.6411
 2900SOL    HW2 9017   1.017   3.712   3.752 -2.1398 -0.5964 -0.1895
 2901SOL     OW 9018   2.970   2.679   4.283 -0.6552  0.3763  0.2856
 2901SOL    HW1 9019   2.943   2.633   4.362 -1.5440 -1.2007 -0.8620
 2901SOL    HW2 9020   2.889   2.715   4.247 -0.9175 -1.8012 -1.6001
 2902SOL     OW 9021   4.908   4.896   0.924 -0.0325  0.0518 -0.3973
 2902SOL    HW1 9022   4.990   4.848   0.936 -0.9008 -1.1936  0.8854
 2902SOL    HW2 9023   4.850   4.862   0.992 -2.0156  0.0097 -2.0035
 2903SOL     OW 9024   0.939   1.197   1.250 -0.2923  0.5529 -0.2828
 2903SOL    HW1 9025   0.982   1.260   1.192  0.7161  1.3710  1.2819
 2903SOL    HW2 9026   0.977   1.112   1.227 -0.2725  0.7799 -1.1273
 2904SOL     OW 9027   1.925   4.903   0.452 -0.1444  0.1817 -0.3046
 2904SOL    HW1 9028   1.944   4.898   0.545 -0.3868  2.3229 -0.0894
 2904SOL    HW2 9029   1.836   4.867   0.444  0.4468 -1.4100  0.0324
 2905SOL     OW 9030   1.799   2.701   4.893 -0.4557 -0.4964 -0.4665
 2905SOL    HW1 9031   1.721   2.668   4.847 -1.6385  0.1547  0.9922
 2905SOL    HW2 9032   1.771   2.784   4.932  0.5887 -0.8395  1.1178
 2906SOL     OW 9033   1.999   1.592   4.204  0.1641 -0.3429 -0.3038
 2906SOL    HW1 9034   1.981   1.510   4.157 -1.0863 -0.1441 -0.2039
 2906SOL    HW2 9035   1.979   1.571   4.296 -0.2064  0.0837 -0.2860
 2907SOL     OW 9036   3.944   2.015   0.116 -0.7494 -0.0674 -0.3190
 2907SOL    HW1 9037   4.020   2.018   0.058  0.4129  2.3693  1.1836
 2907SOL    HW2 9038   3.918   2.106   0.127 -2.0643 -0.5947  1.5232
 2908SOL     OW 9039   3.997   3.383   3.880  0.0175  0.3813  0.1505
 2908SOL    HW1 9040   3.947   3.375   3.961  0.7203  0.6837  0.6230
 2908SOL    HW2 9041   3.934   3.363   3.811 -0.3698 -0.7309  0.8102
 2909SOL     OW 9042   5.034   2.047   4.868  0.1593 -0.4198  0.1054
 2909SOL    HW1 9043   4.951   2.088   4.889 -0.1636 -0.9148 -0.1825
 2909SOL    HW2 9044   5.099   2.117   4.877 -0.4518  0.3171 -1.0081
 2910SOL     OW 9045   2.518   4.435   3.193  0.0156 -0.1227  0.5055
 2910SOL    HW1 9046   2.526   4.422   3.099  0.3918  2.2778  0.1259
 2910SOL    HW2 9047   2.502   4.348   3.229 -1.2637 -0.9516 -1.8857
 2911SOL     OW 9048   1.292   3.146   2.671  0.0653 -0.2781 -0.1523
 2911SOL    HW1 9049   1.233   3.077   2.704 -1.3473  0.4887 -0.9586
 2911SOL    HW2 9050   1.331   3.109   2.592 -0.9060 -0.0929 -0.7419
 2912SOL     OW 9051   3.159   1.785   0.675 -0.0479  0.1046  0.2126
 2912SOL    HW1 9052   3.220   1.838   0.624 -0.2918  0.0223 -0.1672
 2912SOL    HW2 9053   3.079   1.784   0.623 -0.0402 -0.6527  0.2094
 2913SOL     OW 9054   1.104   1.511   4.528  0.4256 -0.2769  0.0661
 2913SOL    HW1 9055   1.016   1.503   4.492  1.0794  1.0648 -1.9800
 2913SOL    HW2 9056   1.116   1.604   4.543  0.9581 -0.5878  1.9122
 2914SOL     OW 9057   4.327   2.708   2.021 -0.2053 -0.6291  0.0131
 2914SOL    HW1 9058   4.405   2.679   1.972  1.5988  0.9889  1.7501
 2914SOL    HW2 9059   4.277   2.759   1.957  3.2014  3.3458  0.1042
 2915SOL     OW 9060   5.002   1.563   4.990 -0.2926 -0.2440 -0.3161
 2915SOL    HW1 9061   4.981   1.643   5.038 -0.7208 -1.3673  1.4422
 2915SOL    HW2 9062   5.095   1.548   5.009 -0.6923 -1.1885  0.9521
 2916SOL     OW 9063   3.172   4.734   2.143  0.2896 -0.4212 -0.2822
 2916SOL    HW1 9064   3.181   4.757   2.235  0.1199 -3.2020  0.5135
 2916SOL    HW2 9065   3.262   4.730   2.110  0.3185  1.3263 -0.4925
 2917SOL     OW 9066   3.971   1.561   4.732 -1.1045 -0.4533 -0.4214
 2917SOL    HW1 9067   4.033   1.542   4.661 -1.3747 -0.1873 -0.7301
 2917SOL    HW2 9068   3.987   1.492   4.797  1.8307  1.3968  1.0502
 2918SOL     OW 9069   1.066   2.398   3.567 -0.3109  0.5679  0.0771
 2918SOL    HW1 9070   1.041   2.306   3.555  0.8766  0.0070  1.5924
 2918SOL    HW2 9071   0.983   2.446   3.567 -0.9674 -0.5331 -0.4162
 2919SOL     OW 9072   0.132   4.224   5.183 -0.5197  0.0356  0.4227
 2919SOL    HW1 9073   0.046   4.237   5.141 -0.4448  2.3719  0.8109
 2919SOL    HW2 9074   0.185   4.180   5.117 -1.2558  0.9853 -0.8556
 2920SOL     OW 9075   5.479   2.370   0.087 -0.9623  0.4799  0.2514
 2920SOL    HW1 9076   5.540   2.416   0.030 -2.3746  0.2364 -1.5383
 2920SOL    HW2 9077   5.453   2.292   0.037 -2.6547  0.5272  0.9908
 2921SOL     OW 9078   4.597   0.972   2.327  0.2043  0.3629  0.1157
 2921SOL    HW1 9079   4.581   1.066   2.328 -2.0149  0.0813 -1.1990
 2921SOL    HW2 9080   4.509   0.933   2.328  0.7873 -1.5403 -3.5394
 2922SOL     OW 9081   0.428   0.026   3.490  0.2748  0.1740 -0.0674
 2922SOL    HW1 9082   0.429   0.098   3.553  2.6749  1.0581 -1.0295
 2922SOL    HW2 9083   0.440  -0.053   3.544  0.6628  0.7653  0.7257
 2923SOL     OW 9084   2.155   0.880   0.502  0.0008  0.5247 -0.1212
 2923SOL    HW1 9085   2.082   0.820   0.485  1.1838 -0.5542 -1.6235
 2923SOL    HW2 9086   2.184   0.857   0.590  0.7635 -1.5636 -0.8434
 2924SOL     OW 9087   2.209   3.470   0.509 -0.0393 -0.0358 -0.3641
 2924SOL    HW1 9088   2.193   3.376   0.500  0.0540 -0.1775  0.8036
 2924SOL    HW2 9089   2.278   3.489   0.447 -0.2058 -0.7032 -0.7598
 2925SOL     OW 9090   1.080   2.577   3.842 -0.0427  0.5730  0.4111
 2925SOL    HW1 9091   1.154   2.519   3.861 -0.3158 -0.7004 -2.0340
 2925SOL    HW2 9092   1.005   2.534   3.884  0.0906  0.2381  0.3135
 2926SOL     OW 9093   2.891   1.761   4.759 -0.0035 -0.3809  0.3570
 2926SOL    HW1 9094   2.810   1.761   4.811  0.4769 -1.5244  1.1204
 2926SOL    HW2 9095   2.892   1.676   4.715  1.5443 -1.0442  1.5884
 2927SOL     OW 9096   2.026   5.220   1.042  0.3066  0.4374 -0.0954
 2927SOL    HW1 9097   2.117   5.244   1.059  1.0713 -1.7648 -0.7374
 2927SOL    HW2 9098   2.030   5.162   0.966 -1.4766 -0.8520  0.7285
 2928SOL     OW 9099   1.076   0.969   2.291  0.0277  0.2284  0.0499
 2928SOL    HW1 9100   0.993   0.940   2.253 -0.4783  0.8427  0.6534
 2928SOL    HW2 9101   1.141   0.952   2.222 -0.7262  0.4918 -0.7493
 2929SOL     OW 9102   2.519   0.780   1.585 -0.3021 -0.2141  0.2020
 2929SOL    HW1 9103   2.529   0.691   1.620 -0.5153 -0.3778 -0.1597
 2929SOL    HW2 9104   2.536   0.836   1.661  2.0667 -0.4961 -0.0205
 2930SOL     OW 9105   5.267   1.511   4.114 -0.2756 -0.4257  0.0342
 2930SOL    HW1 9106   5.185   1.464   4.132  0.2194 -1.3669 -0.0860
 2930SOL    HW2 9107   5.310   1.517   4.200 -0.4687  0.0724  0.0984
 2931SOL     OW 9108   5.228   1.211   4.470 -0.1181 -0.1314 -0.1431
 2931SOL    HW1 9109   5.298   1.151   4.495  0.5350  0.3147 -0.8456
 2931SOL    HW2 9110   5.214   1.195   4.377 -0.1430  0.5864 -0.2708
 2932SOL     OW 9111   5.352   5.257   0.274  0.9642 -0.1152 -0.0079
 2932SOL    HW1 9112   5.299   5.304   0.338  0.4671 -1.7562  0.8431
 2932SOL    HW2 9113   5.442   5.286   0.291  0.8615 -0.6742  1.5973
 2933SOL     OW 9114   0.912   0.027   1.655  1.2900 -0.1607  0.1484
 2933SOL    HW1 9115   0.954  -0.021   1.583  1.6857  0.8011 -0.2730
 2933SOL    HW2 9116   0.820   0.034   1.629  0.6353 -2.8457  1.3716
 2934SOL     OW 9117   5.085   3.736   1.044 -0.5137 -0.1795  0.3540
 2934SOL    HW1 9118   5.120   3.791   1.114  0.2502 -2.0409  1.5275
 2934SOL    HW2 9119   5.018   3.682   1.087  0.0028 -1.3958 -0.3099
 2935SOL     OW 9120   4.674   2.848   5.341  0.3712 -0.1106  0.2715
 2935SOL    HW1 9121   4.651   2.854   5.249 -1.2400  0.5650  0.6919
 2935SOL    HW2 9122   4.627   2.770   5.373  1.6818 -0.9106  0.3340
 2936SOL     OW 9123   5.001   0.880   3.519  0.4027  0.1906 -0.2890
 2936SOL    HW1 9124   4.930   0.869   3.456 -1.4632  0.4733  1.6721
 2936SOL    HW2 9125   5.002   0.973   3.538 -1.1743 -0.2337  2.3305
 2937SOL     OW 9126   3.156   4.429   4.983 -0.9442  0.1128 -0.3241
 2937SOL    HW1 9127   3.115   4.491   5.044 -0.4036 -0.5802  0.7780
 2937SOL    HW2 9128   3.145   4.343   5.024 -0.7608 -0.4108 -1.3255
 2938SOL     OW 9129   1.334   2.048   5.002 -0.0238 -0.4182 -0.0820
 2938SOL    HW1 9130   1.288   2.045   4.918  0.5245  0.6376 -0.4346
 2938SOL    HW2 9131   1.427   2.047   4.978  0.2305  3.1849  0.2708
 2939SOL     OW 9132   5.095   3.468   3.704 -0.5646 -0.1700 -0.8667
 2939SOL    HW1 9133   5.173   3.495   3.655 -0.3289 -0.2710 -0.5429
 2939SOL    HW2 9134   5.098   3.373   3.704  1.1893 -0.2328  2.1114
 2940SOL     OW 9135   3.699   3.066   1.567 -0.3871  0.3282  0.6667
 2940SOL    HW1 9136   3.629   3.015   1.607  0.0943 -0.2068  0.8493
 2940SOL    HW2 9137   3.662   3.153   1.555 -1.0708  0.0624  0.7856
 2941SOL     OW 9138   0.551   3.058   1.174  0.3163 -0.2991  0.5541
 2941SOL    HW1 9139   0.634   3.092   1.208 -0.4233  0.7006  1.3965
 2941SOL    HW2 9140   0.555   3.075   1.080 -0.2913  2.8624  0.9853
 2942SOL     OW 9141   4.694   4.236   3.260  0.0935  0.4663 -0.5833
 2942SOL    HW1 9142   4.615   4.231   3.206  0.0487  1.6220 -0.6577
 2942SOL    HW2 9143   4.706   4.148   3.294 -3.0799  0.8834  2.1123
 2943SOL     OW 9144   0.534   2.003   2.775 -0.2764  0.3507 -0.0326
 2943SOL    HW1 9145   0.524   2.081   2.720  0.3584  0.9586  0.7031
 2943SOL    HW2 9146   0.621   2.010   2.813 -0.1762 -0.7611 -0.0010
 2944SOL     OW 9147   4.699   0.598   4.656 -0.4544  0.1599 -0.5595
 2944SOL    HW1 9148   4.660   0.564   4.737 -0.7462  0.9973 -0.3383
 2944SOL    HW2 9149   4.757   0.528   4.627  0.2280  0.1368  0.7671
 2945SOL     OW 9150   0.608   4.699   3.514  0.1909  0.8290 -0.3275
 2945SOL    HW1 9151   0.622   4.775   3.457  0.3338 -1.0261 -2.9648
 2945SOL    HW2 9152   0.513   4.685   3.512  0.2919  0.2094 -0.8870
 2946SOL     OW 9153   1.815   2.529   5.124 -0.0454  0.1513 -0.1008
 2946SOL    HW1 9154   1.886   2.469   5.103  0.4546  1.0077 -0.9625
 2946SOL    HW2 9155   1.803   2.580   5.044 -1.3928  0.2730  0.1440
 2947SOL     OW 9156   1.241   0.212   5.132 -0.1660 -0.2319  0.1130
 2947SOL    HW1 9157   1.207   0.264   5.060 -2.1886 -1.1931  0.2847
 2947SOL    HW2 9158   1.276   0.133   5.091 -0.9630 -0.6033  0.1241
 2948SOL     OW 9159   3.728   3.032   2.062 -0.3148  0.2719 -0.0745
 2948SOL    HW1 9160   3.750   3.029   1.969 -0.2187 -1.2995 -0.0172
 2948SOL    HW2 9161   3.717   3.125   2.081  1.9450  0.8183 -1.1364
 2949SOL     OW 9162   2.345   1.320   3.221  0.2707  0.3801  0.2081
 2949SOL    HW1 9163   2.346   1.333   3.127 -0.5672 -0.0928  0.1235
 2949SOL    HW2 9164   2.382   1.233   3.235 -3.0423 -1.2105 -0.0277
 2950SOL     OW 9165   5.146   0.217   0.858  0.5203 -0.1152 -0.6044
 2950SOL    HW1 9166   5.183   0.131   0.875  0.3157 -0.1059 -0.1159
 2950SOL    HW2 9167   5.053   0.208   0.876  0.9822  1.2080  3.5644
 2951SOL     OW 9168   4.796   3.316   2.848  0.8372 -0.1034  0.5418
 2951SOL    HW1 9169   4.864   3.273   2.899  2.3255  1.3590 -0.1168
 2951SOL    HW2 9170   4.740   3.359   2.912  1.0818 -0.5451  1.0541
 2952SOL     OW 9171   1.325   2.008   3.353  0.2229  0.3347  0.2258
 2952SOL    HW1 9172   1.290   1.984   3.439  1.1785 -0.2257  0.4774
 2952SOL    HW2 9173   1.416   1.979   3.356  0.0255 -0.5547 -1.3239
 2953SOL     OW 9174   4.478   3.613   1.393  0.2883  0.0926  0.3095
 2953SOL    HW1 9175   4.521   3.589   1.311  3.1883  2.2663  1.0270
 2953SOL    HW2 9176   4.514   3.553   1.458  0.5556  0.4747  0.5233
 2954SOL     OW 9177   5.447   5.040   5.342  0.0444 -0.0758  0.0990
 2954SOL    HW1 9178   5.466   5.048   5.249 -0.0484 -0.2743  0.0613
 2954SOL    HW2 9179   5.491   4.959   5.368 -0.0440 -0.0921  0.1972
 2955SOL     OW 9180   1.789   4.885   5.242  0.5436  0.2364  0.4584
 2955SOL    HW1 9181   1.807   4.961   5.188  1.7231 -0.1546  0.2554
 2955SOL    HW2 9182   1.699   4.896   5.271 -0.0461  0.5634 -1.3880
 2956SOL     OW 9183   2.470   1.397   0.118 -0.3644 -0.4184 -0.4251
 2956SOL    HW1 9184   2.532   1.396   0.044  0.6896 -2.9642  0.3906
 2956SOL    HW2 9185   2.514   1.347   0.187 -2.3199 -0.1562  1.0904
 2957SOL     OW 9186   2.004   0.648   0.444  0.1427 -0.3873 -0.1313
 2957SOL    HW1 9187   1.944   0.695   0.387  0.3175 -1.7602 -1.5088
 2957SOL    HW2 9188   1.963   0.562   0.458  1.6310 -1.2757 -0.9256
 2958SOL     OW 9189   3.499   5.499   0.443  0.0934 -0.1408  0.1706
 2958SOL    HW1 9190   3.404   5.514   0.450  0.1783  0.9251 -0.6614
 2958SOL    HW2 9191   3.510   5.406   0.461 -1.0425 -0.1587  0.8746
 2959SOL     OW 9192   1.139   1.376   3.609  0.0252 -0.3422  0.2726
 2959SOL    HW1 9193   1.088   1.360   3.530  0.2126 -2.7025  0.5300
 2959SOL    HW2 9194   1.185   1.458   3.593  0.4189 -0.9944 -2.2659
 2960SOL     OW 9195   3.207   0.311   1.047 -0.2048  0.1106  0.1168
 2960SOL    HW1 9196   3.165   0.263   1.119 -1.8435  1.0589 -0.1471
 2960SOL    HW2 9197   3.146   0.383   1.028  1.2005  1.1017 -0.8386
 2961SOL     OW 9198   0.595   3.529   0.164 -0.2194 -0.0209  0.5839
 2961SOL    HW1 9199   0.547   3.515   0.082  2.1113 -1.3284 -0.6465
 2961SOL    HW2 9200   0.609   3.624   0.167 -0.8439  0.1116 -0.2046
 2962SOL     OW 9201   4.416   3.830   2.841 -0.1125 -0.0973  0.4598
 2962SOL    HW1 9202   4.509   3.851   2.853 -0.3282  0.0129  2.3587
 2962SOL    HW2 9203   4.413   3.735   2.835  0.0911 -0.1419  0.9910
 2963SOL     OW 9204   4.424   0.633   3.938  0.0990 -0.0106  0.3966
 2963SOL    HW1 9205   4.417   0.717   3.893  2.5801  0.0515 -0.0039
 2963SOL    HW2 9206   4.514   0.630   3.970 -0.3990 -1.8465  1.8059
 2964SOL     OW 9207   3.155   3.948   1.358 -0.1516  0.4264  0.0199
 2964SOL    HW1 9208   3.093   3.976   1.425 -0.1256 -0.1375  0.2824
 2964SOL    HW2 9209   3.194   4.029   1.326 -1.3738  0.8411 -0.4931
 2965SOL     OW 9210   0.127   0.817   1.308 -0.2431  0.5746 -1.0061
 2965SOL    HW1 9211   0.162   0.906   1.313 -0.5954  0.6786 -0.3576
 2965SOL    HW2 9212   0.134   0.794   1.215 -1.3488  1.7506 -1.4032
 2966SOL     OW 9213   1.095   4.110   3.292  0.8114 -0.2605 -0.2881
 2966SOL    HW1 9214   1.135   4.169   3.356  0.0285 -1.4145  1.3505
 2966SOL    HW2 9215   1.155   4.112   3.217  2.5308  0.0973  1.0195
 2967SOL     OW 9216   0.333   1.155   1.070  0.2994 -0.0796  0.8690
 2967SOL    HW1 9217   0.298   1.231   1.023  1.1903 -0.1611  0.0482
 2967SOL    HW2 9218   0.425   1.176   1.085  0.9745 -1.6278 -0.7691
 2968SOL     OW 9219   2.811   4.951   4.160  0.4559  0.0696  0.1183
 2968SOL    HW1 9220   2.746   4.916   4.098 -0.1837 -0.2491  0.9534
 2968SOL    HW2 9221   2.769   4.943   4.245  1.9395 -0.9421  0.7775
 2969SOL     OW 9222   4.545   5.309   4.631 -0.0875  0.7837 -0.3060
 2969SOL    HW1 9223   4.569   5.264   4.550  1.0276 -0.1537  0.4959
 2969SOL    HW2 9224   4.627   5.349   4.661 -0.3534  0.6528  0.6270
 2970SOL     OW 9225   3.742   5.157   2.644 -0.6100  0.2880  0.3854
 2970SOL    HW1 9226   3.830   5.166   2.607 -0.5139  1.2286  0.8146
 2970SOL    HW2 9227   3.751   5.189   2.734 -0.6755 -2.5496  1.5111
 2971SOL     OW 9228   3.538   4.146   5.332  0.0737 -0.5734  0.0473
 2971SOL    HW1 9229   3.469   4.207   5.306  1.2161  0.3755 -0.8264
 2971SOL    HW2 9230   3.527   4.137   5.427 -0.1102  1.0031  0.1955
 2972SOL     OW 9231   1.713   0.610   1.060  0.6373 -0.5042 -0.0927
 2972SOL    HW1 9232   1.695   0.574   1.147  0.0560 -0.3357 -0.1414
 2972SOL    HW2 9233   1.637   0.585   1.008  0.5553  0.1880 -0.3106
 2973SOL     OW 9234   0.481   3.073   5.294  0.2261  0.3206  0.0752
 2973SOL    HW1 9235   0.561   3.062   5.347  0.2348  2.4101  0.5980
 2973SOL    HW2 9236   0.485   3.165   5.265  0.1884 -0.6896 -3.5585
 2974SOL     OW 9237   4.826   2.577   3.901  0.0790 -0.2795  0.1658
 2974SOL    HW1 9238   4.744   2.531   3.881  0.8831 -0.8667 -2.0184
 2974SOL    HW2 9239   4.881   2.563   3.825  1.4294  1.9933  0.6246
 2975SOL     OW 9240   2.780   0.544   0.899 -0.1134 -0.0219 -0.2945
 2975SOL    HW1 9241   2.717   0.587   0.956 -1.2296 -1.5996 -0.2894
 2975SOL    HW2 9242   2.863   0.551   0.946 -0.2136  2.1553 -0.3458
 2976SOL     OW 9243   2.142   3.455   4.196 -0.4601 -0.2437 -0.2042
 2976SOL    HW1 9244   2.125   3.411   4.279  1.3552 -0.1117  0.2710
 2976SOL    HW2 9245   2.133   3.548   4.216  0.8568 -0.1610  0.0995
 2977SOL     OW 9246   2.133   0.277   4.289  0.7334  0.0532  0.3048
 2977SOL    HW1 9247   2.190   0.233   4.227 -1.1132 -0.5707 -1.0169
 2977SOL    HW2 9248   2.117   0.364   4.251 -1.7265 -0.8973 -1.0668
 2978SOL     OW 9249   1.455   1.632   5.164  0.2987  0.0213  0.5671
 2978SOL    HW1 9250   1.473   1.546   5.202 -0.5044 -0.0766  0.7336
 2978SOL    HW2 9251   1.421   1.614   5.077  0.6290  0.1917  0.4015
 2979SOL     OW 9252   1.714   3.841   4.117  0.5407  0.3784 -0.3482
 2979SOL    HW1 9253   1.802   3.862   4.148  0.4877  0.1357 -0.0270
 2979SOL    HW2 9254   1.686   3.919   4.069 -0.6324  2.1061  2.8430
 2980SOL     OW 9255   0.640   4.589   3.767  0.3250  0.1609  0.1716
 2980SOL    HW1 9256   0.653   4.618   3.677  0.8948  1.0746  0.5390
 2980SOL    HW2 9257   0.716   4.533   3.785 -0.3648 -0.9457 -0.2727
 2981SOL     OW 9258   5.272   5.075   4.605  0.1333  0.4994 -0.0513
 2981SOL    HW1 9259   5.239   5.068   4.515  1.1425  0.7862 -0.4565
 2981SOL    HW2 9260   5.201   5.039   4.659 -0.3043 -0.1078 -0.9919
 2982SOL     OW 9261   4.539   1.989   3.702 -0.1534 -0.5832  0.8970
 2982SOL    HW1 9262   4.502   1.961   3.619 -1.1245  0.7991  0.8318
 2982SOL    HW2 9263   4.594   1.915   3.730  2.1386 -0.2152 -2.0869
 2983SOL     OW 9264   2.544   2.458   3.442  0.1668 -0.0113 -0.7104
 2983SOL    HW1 9265   2.570   2.407   3.366 -0.8074  0.0579 -1.1048
 2983SOL    HW2 9266   2.551   2.549   3.413  0.3803  0.0357 -0.5160
 2984SOL     OW 9267   3.540   5.055   1.696 -0.3275  0.2007 -0.2412
 2984SOL    HW1 9268   3.616   5.097   1.657 -0.0905  1.0130  1.0325
 2984SOL    HW2 9269   3.568   4.965   1.712  0.1571  0.3301 -0.3466
 2985SOL     OW 9270   1.555   2.133   2.861 -0.2068 -0.7254  0.0802
 2985SOL    HW1 9271   1.479   2.082   2.887 -0.4088 -0.5408 -0.1433
 2985SOL    HW2 9272   1.618   2.120   2.932 -0.1988 -1.3966 -0.0414
 2986SOL     OW 9273   4.893   2.979   2.352  0.0675 -0.2293  0.1609
 2986SOL    HW1 9274   4.808   3.012   2.382  1.4062  2.9595  0.8132
 2986SOL    HW2 9275   4.950   2.984   2.428  1.2330 -0.9310 -0.6290
 2987SOL     OW 9276   0.190   2.978   3.366  0.5667 -0.2262 -0.0217
 2987SOL    HW1 9277   0.225   2.895   3.399  1.0559 -0.2398 -0.5469
 2987SOL    HW2 9278   0.265   3.038   3.369  0.3612  0.0373 -0.1711
 2988SOL     OW 9279   4.328   4.711   3.746 -0.5245  0.3847  0.2320
 2988SOL    HW1 9280   4.345   4.624   3.782 -0.6888  0.0443 -0.4756
 2988SOL    HW2 9281   4.402   4.764   3.773  0.0687 -0.2336 -0.1417
 2989SOL     OW 9282   1.983   3.137   2.864 -0.0871 -0.0288  0.4677
 2989SOL    HW1 9283   2.032   3.141   2.946  0.0515 -1.9025  0.5169
 2989SOL    HW2 9284   1.972   3.044   2.847 -0.4302  0.3125 -1.4646
 2990SOL     OW 9285   3.345   3.359   4.559  0.1867 -0.2143  0.2815
 2990SOL    HW1 9286   3.354   3.448   4.593  0.1059 -0.0989  0.0082
 2990SOL    HW2 9287   3.412   3.308   4.605  0.6073  0.1083  0.0380
 2991SOL     OW 9288   4.664   0.660   5.447  0.2047  0.1080 -0.3313
 2991SOL    HW1 9289   4.723   0.653   5.521  1.4650  1.5804 -1.1412
 2991SOL    HW2 9290   4.721   0.675   5.371 -1.1607  1.2711 -1.1922
 2992SOL     OW 9291   3.719   4.095   0.342  0.2587  0.2834  0.0866
 2992SOL    HW1 9292   3.768   4.027   0.296  0.3574 -0.3493  1.1028
 2992SOL    HW2 9293   3.772   4.174   0.332  1.6893 -0.4554  1.4384
 2993SOL     OW 9294   2.505   0.594   0.971  0.5508 -0.0587  0.2844
 2993SOL    HW1 9295   2.441   0.622   1.037  0.6290 -1.1512  0.8309
 2993SOL    HW2 9296   2.480   0.504   0.950  2.2841 -0.7269  0.9755
 2994SOL     OW 9297   4.438   0.249   4.460 -0.3161 -0.0490 -0.4250
 2994SOL    HW1 9298   4.373   0.282   4.398 -0.0849 -0.1727 -0.7394
 2994SOL    HW2 9299   4.409   0.281   4.545 -0.4702  0.3841 -0.6373
 2995SOL     OW 9300   3.192   2.423   5.450 -0.7318 -0.0178 -0.2293
 2995SOL    HW1 9301   3.170   2.367   5.524 -0.8112 -2.0761 -1.7383
 2995SOL    HW2 9302   3.282   2.399   5.427 -0.5258  0.9627 -0.4890
 2996SOL     OW 9303   4.124   3.366   4.343  0.3237  0.5540 -0.3292
 2996SOL    HW1 9304   4.081   3.314   4.411  1.1660  0.1019 -0.1303
 2996SOL    HW2 9305   4.159   3.301   4.283  0.9005  0.9122 -0.3790
 2997SOL     OW 9306   3.290   1.475   1.087 -0.3784 -0.0060  0.0402
 2997SOL    HW1 9307   3.332   1.500   1.169 -0.6985 -2.4308  1.0362
 2997SOL    HW2 9308   3.353   1.498   1.020 -0.1720  2.1879  0.9138
 2998SOL     OW 9309   1.961   3.575   4.466  0.5872 -0.2322  0.2715
 2998SOL    HW1 9310   1.994   3.523   4.538  2.2629 -0.0405 -0.3165
 2998SOL    HW2 9311   2.039   3.605   4.420 -0.3859  1.1140 -0.5905
 2999SOL     OW 9312   3.375   0.073   0.936 -0.4067  0.7898  0.1705
 2999SOL    HW1 9313   3.305   0.027   0.984  0.7967 -0.1522  1.0841
 2999SOL    HW2 9314   3.336   0.093   0.851 -1.6065 -0.2323  0.4500
 3000SOL     OW 9315   1.434   4.376   3.531  0.1397 -0.7206  0.0607
 3000SOL    HW1 9316   1.465   4.286   3.538  1.5732 -0.1726  1.3203
 3000SOL    HW2 9317   1.436   4.409   3.621 -1.0178  0.3798 -0.2830
 3001SOL     OW 9318   0.166   1.515   1.123 -0.2937  0.1364 -0.4257
 3001SOL    HW1 9319   0.225   1.578   1.165 -0.1579  0.1031 -0.5648
 3001SOL    HW2 9320   0.117   1.477   1.196 -0.2503  0.2740 -0.3232
 3002SOL     OW 9321   4.936   0.296   5.004 -0.5099  0.1108 -0.0846
 3002SOL    HW1 9322   4.843   0.274   5.007 -0.4417 -0.1160  0.6939
 3002SOL    HW2 9323   4.945   0.370   5.065  0.0384 -0.7698  0.9370
 3003SOL     OW 9324   3.486   5.528   2.918 -0.1038 -0.3658  0.2627
 3003SOL    HW1 9325   3.564   5.511   2.972 -0.0340 -0.3099  0.1781
 3003SOL    HW2 9326   3.505   5.610   2.874  0.2160 -0.8554 -0.5351
 3004SOL     OW 9327   1.107   2.353   1.393 -0.1866  0.3285 -0.5725
 3004SOL    HW1 9328   1.177   2.393   1.444 -2.5451  2.3318  1.3592
 3004SOL    HW2 9329   1.068   2.289   1.453 -0.8081  0.1448 -1.1570
 3005SOL     OW 9330   4.989   1.446   2.461 -0.3897 -0.1103 -0.4187
 3005SOL    HW1 9331   4.954   1.512   2.522 -1.7058 -1.3321  0.2118
 3005SOL    HW2 9332   4.911   1.407   2.421  0.2990 -1.9342 -0.0545
 3006SOL     OW 9333   0.364   5.152   4.606  0.0020 -0.9583 -0.1697
 3006SOL    HW1 9334   0.296   5.209   4.642  0.6341 -0.8452  0.9184
 3006SOL    HW2 9335   0.321   5.068   4.593 -1.0617 -0.1697 -2.2125
 3007SOL     OW 9336   3.075   1.079   1.140 -0.5234  0.0444  0.3747
 3007SOL    HW1 9337   3.110   1.156   1.094  0.5249 -0.9666 -0.5831
 3007SOL    HW2 9338   3.149   1.019   1.146 -1.7558 -1.6694 -0.6104
 3008SOL     OW 9339   1.014   3.571   2.191  0.4886 -0.3184  0.1929
 3008SOL    HW1 9340   0.939   3.588   2.134 -0.0994 -2.1778  0.3719
 3008SOL    HW2 9341   1.049   3.488   2.161  2.2168  0.2773  0.4398
 3009SOL     OW 9342   1.612   3.067   0.417 -0.7531  1.0721 -0.0497
 3009SOL    HW1 9343   1.616   3.017   0.336 -3.6185 -0.8110  0.8140
 3009SOL    HW2 9344   1.602   3.158   0.389 -1.1914  0.5142 -1.8078
 3010SOL     OW 9345   3.062   3.141   3.039  0.4498 -0.6104  0.3522
 3010SOL    HW1 9346   3.110   3.150   2.956 -0.7174  0.3619 -0.2436
 3010SOL    HW2 9347   3.130   3.117   3.103  1.4659 -0.8247 -0.7610
 3011SOL     OW 9348   1.467   3.746   5.097  0.3403 -0.1625  0.1338
 3011SOL    HW1 9349   1.480   3.839   5.078  1.7135 -0.0915  1.2784
 3011SOL    HW2 9350   1.547   3.704   5.065  0.4508 -0.7029  1.0804
 3012SOL     OW 9351   1.631   3.561   3.058  0.4607  0.2327  0.1673
 3012SOL    HW1 9352   1.689   3.489   3.033 -1.0028 -1.5738  1.7311
 3012SOL    HW2 9353   1.615   3.549   3.151 -3.2049 -0.0070 -0.3559
 3013SOL     OW 9354   1.108   5.473   2.906 -0.0061 -0.1830 -0.0980
 3013SOL    HW1 9355   1.027   5.514   2.936 -0.3545 -0.7324 -0.2591
 3013SOL    HW2 9356   1.178   5.521   2.950 -0.4052  0.4979 -0.1936
 3014SOL     OW 9357   4.975   1.128   0.849  0.2530 -0.0815 -0.2141
 3014SOL    HW1 9358   4.921   1.183   0.906 -0.4611 -0.0469 -0.8983
 3014SOL    HW2 9359   4.971   1.171   0.764  1.9363  0.2881 -0.1340
 3015SOL     OW 9360   3.290   4.250   0.268 -0.4781 -0.1359  0.9835
 3015SOL    HW1 9361   3.304   4.283   0.357  0.6741 -1.9103  1.5275
 3015SOL    HW2 9362   3.344   4.170   0.264 -0.4684 -0.0742 -1.3299
 3016SOL     OW 9363   1.145   2.430   3.081 -0.0233 -0.7549 -0.1968
 3016SOL    HW1 9364   1.219   2.401   3.027  0.5460  0.2113  0.0413
 3016SOL    HW2 9365   1.183   2.450   3.166 -0.5819 -0.3764 -0.0284
 3017SOL     OW 9366   3.046   2.357   1.834  0.4544 -0.1903  0.2076
 3017SOL    HW1 9367   3.139   2.352   1.811  0.2568  1.7911 -1.2429
 3017SOL    HW2 9368   3.001   2.361   1.750 -0.8235  0.6807  0.9104
 3018SOL     OW 9369   2.594   5.397   0.372  0.2624 -0.2926  0.6403
 3018SOL    HW1 9370   2.630   5.434   0.452 -0.9904  1.0806  0.6114
 3018SOL    HW2 9371   2.598   5.468   0.309  0.2758 -1.0418 -0.2237
 3019SOL     OW 9372   0.657   1.110   2.102  0.2576 -0.2550 -0.2941
 3019SOL    HW1 9373   0.701   1.165   2.036 -1.7794  0.1764 -1.3698
 3019SOL    HW2 9374   0.614   1.041   2.051 -2.4775  0.8460  0.3510
 3020SOL     OW 9375   5.531   1.709   5.259 -0.4257  0.2733  0.0661
 3020SOL    HW1 9376   5.504   1.633   5.207  0.6948  0.0608 -0.2418
 3020SOL    HW2 9377   5.625   1.717   5.243 -0.2899  0.9764  1.0847
 3021SOL     OW 9378   1.408   4.627   4.459 -0.2634 -0.3326  0.4175
 3021SOL    HW1 9379   1.428   4.706   4.410  1.8259 -0.8417  0.3670
 3021SOL    HW2 9380   1.338   4.653   4.519 -1.1076  0.9522 -1.0689
 3022SOL     OW 9381   2.326   3.583   4.031  0.0068  0.1075  0.6410
 3022SOL    HW1 9382   2.253   3.540   4.077  2.3259 -1.7085  2.9052
 3022SOL    HW2 9383   2.355   3.652   4.090  0.6612  0.2631  0.1493
 3023SOL     OW 9384   2.338   0.474   2.369  0.2522 -0.5422 -0.2686
 3023SOL    HW1 9385   2.389   0.471   2.288 -0.5856  1.6371 -0.9646
 3023SOL    HW2 9386   2.315   0.383   2.386 -0.1811 -1.0322 -2.9185
 3024SOL     OW 9387   1.472   2.839   4.197 -0.0268 -0.1532 -0.2581
 3024SOL    HW1 9388   1.499   2.753   4.230  0.4117  0.7443  1.9453
 3024SOL    HW2 9389   1.406   2.869   4.260  1.0112  1.7893 -0.0201
 3025SOL     OW 9390   3.294   5.336   2.041 -0.6362  0.1707 -0.3381
 3025SOL    HW1 9391   3.224   5.398   2.059 -0.3129  0.6935 -0.8656
 3025SOL    HW2 9392   3.250   5.251   2.034 -1.1735  0.4517 -0.3821
 3026SOL     OW 9393   4.060   3.553   1.704 -0.1901 -0.1101  0.2783
 3026SOL    HW1 9394   4.024   3.469   1.675  0.5521 -0.0726 -0.8485
 3026SOL    HW2 9395   4.068   3.605   1.623 -0.4431  0.9729  0.9265
 3027SOL     OW 9396   2.133   2.371   2.988 -0.4441  0.4198  0.1376
 3027SOL    HW1 9397   2.197   2.312   2.948 -1.4727 -0.3136 -0.4635
 3027SOL    HW2 9398   2.180   2.409   3.063  0.0708 -1.5935  0.9143
 3028SOL     OW 9399   1.368   2.530   0.148 -0.3198 -0.3862 -0.3989
 3028SOL    HW1 9400   1.303   2.513   0.216 -0.5193  0.6511 -0.3188
 3028SOL    HW2 9401   1.449   2.491   0.182 -0.3417  0.3908  0.5817
 3029SOL     OW 9402   2.877   2.222   2.591 -0.2097  0.1921 -0.0432
 3029SOL    HW1 9403   2.938   2.151   2.569 -1.7958 -1.6665  1.2613
 3029SOL    HW2 9404   2.801   2.178   2.629 -1.7886  2.5300 -0.2709
 3030SOL     OW 9405   5.330   3.515   4.381  0.1514  0.7283  0.0719
 3030SOL    HW1 9406   5.251   3.471   4.350 -1.5756  2.0737  2.2272
 3030SOL    HW2 9407   5.316   3.526   4.475  3.4933 -0.0397  0.8025
 3031SOL     OW 9408   1.862   2.173   5.390  0.5208  0.2101 -0.2047
 3031SOL    HW1 9409   1.813   2.197   5.469 -0.7564 -0.8883 -0.6242
 3031SOL    HW2 9410   1.935   2.120   5.423  0.2290  0.0966  0.2750
 3032SOL     OW 9411   4.998   1.573   2.746  0.2807 -0.1890 -0.1969
 3032SOL    HW1 9412   4.925   1.532   2.792 -0.9669  2.1946  0.1581
 3032SOL    HW2 9413   5.050   1.613   2.816  0.0406  0.9289 -0.6380
 3033SOL     OW 9414   3.112   2.690   1.899  0.4023  0.3185  0.1291
 3033SOL    HW1 9415   3.047   2.742   1.851 -0.0045 -1.2713 -1.1559
 3033SOL    HW2 9416   3.069   2.668   1.981 -0.7184 -0.6839 -0.6904
 3034SOL     OW 9417   2.249   1.547   0.901 -0.6310 -0.5837  0.0767
 3034SOL    HW1 9418   2.296   1.535   0.819  3.2017 -0.3216  1.9690
 3034SOL    HW2 9419   2.188   1.474   0.905  0.4629 -1.7195 -2.1424
 3035SOL     OW 9420   3.677   1.136   5.500  0.6395 -0.2274  0.1529
 3035SOL    HW1 9421   3.708   1.212   5.551 -1.1173  0.9537 -0.4477
 3035SOL    HW2 9422   3.588   1.121   5.531  0.0400 -0.3867 -1.5589
 3036SOL     OW 9423   2.145   4.357   2.900 -0.5114 -0.2699 -0.0788
 3036SOL    HW1 9424   2.230   4.370   2.858 -1.7720 -0.2483 -2.8433
 3036SOL    HW2 9425   2.095   4.435   2.879 -1.8183 -1.0817 -0.1093
 3037SOL     OW 9426   2.547   3.123   1.161 -0.2099 -0.4169 -0.0620
 3037SOL    HW1 9427   2.553   3.048   1.102 -0.3013 -0.3172 -0.1985
 3037SOL    HW2 9428   2.638   3.139   1.187  0.1135  0.7918 -1.7668
 3038SOL     OW 9429   2.262   2.489   1.292  0.4140  0.2884 -0.7874
 3038SOL    HW1 9430   2.275   2.439   1.373  0.4833  1.3375 -0.1387
 3038SOL    HW2 9431   2.169   2.475   1.270 -0.2993  2.0271  0.8873
 3039SOL     OW 9432   4.977   4.669   2.759 -0.2555  0.1363  0.2746
 3039SOL    HW1 9433   5.067   4.640   2.772  0.0261  1.5637  1.7258
 3039SOL    HW2 9434   4.923   4.599   2.794  0.3553  0.2305  1.4314
 3040SOL     OW 9435   0.173   3.713   3.419 -0.1098 -0.7172 -0.4848
 3040SOL    HW1 9436   0.218   3.664   3.487 -0.0089 -0.2782 -0.2331
 3040SOL    HW2 9437   0.080   3.703   3.439 -0.0642 -0.1278  0.0467
 3041SOL     OW 9438   2.065   3.713   4.147  0.0294 -0.7951 -0.4537
 3041SOL    HW1 9439   2.060   3.784   4.211 -1.8813  0.0650 -1.4844
 3041SOL    HW2 9440   2.100   3.754   4.068 -0.8719 -1.0221 -0.9845
 3042SOL     OW 9441   1.913   5.400   3.460 -0.6728  0.7110 -0.5505
 3042SOL    HW1 9442   1.910   5.480   3.408 -0.5251  0.3128 -1.1750
 3042SOL    HW2 9443   1.983   5.416   3.523 -0.6841  1.0947 -0.6297
 3043SOL     OW 9444   0.645   3.715   1.710  0.0255 -0.1811 -0.0953
 3043SOL    HW1 9445   0.705   3.723   1.635 -0.3007 -1.4160 -0.4972
 3043SOL    HW2 9446   0.583   3.647   1.684 -1.5052  0.9852  0.3661
 3044SOL     OW 9447   0.742   1.917   0.612 -0.6105 -0.0364  0.8003
 3044SOL    HW1 9448   0.783   1.831   0.624 -1.5042 -0.5537  0.2403
 3044SOL    HW2 9449   0.734   1.953   0.700 -2.4585 -1.5847  1.3327
 3045SOL     OW 9450   4.713   3.009   1.075  0.5539  0.0131  0.3771
 3045SOL    HW1 9451   4.778   3.012   1.146  0.2509 -0.6178  0.6967
 3045SOL    HW2 9452   4.673   2.922   1.084  1.1538 -0.4410 -1.1607
 3046SOL     OW 9453   1.326   3.545   4.070 -0.3608  0.4405  0.3092
 3046SOL    HW1 9454   1.360   3.540   3.980 -1.4958  1.7442 -0.2328
 3046SOL    HW2 9455   1.241   3.502   4.065 -0.0250 -0.3086  0.9887
 3047SOL     OW 9456   4.667   1.565   2.670 -0.1281 -0.1172 -0.0068
 3047SOL    HW1 9457   4.671   1.633   2.738 -1.1967 -0.1006  0.0542
 3047SOL    HW2 9458   4.634   1.488   2.716 -1.4931  0.0701 -0.6134
 3048SOL     OW 9459   4.176   5.207   2.044 -0.1340  0.0722 -0.0892
 3048SOL    HW1 9460   4.268   5.198   2.020 -0.0090  0.8718  0.0718
 3048SOL    HW2 9461   4.155   5.126   2.090  0.3716 -0.2948 -0.4956
 3049SOL     OW 9462   1.467   3.339   4.246  0.8538  0.2752  0.4273
 3049SOL    HW1 9463   1.444   3.284   4.170  0.7172 -0.4457  0.9752
 3049SOL    HW2 9464   1.429   3.424   4.226 -2.3815 -0.8451  1.2779
 3050SOL     OW 9465   0.790   0.184   0.467 -0.4313 -0.1258 -0.2104
 3050SOL    HW1 9466   0.722   0.239   0.506 -1.9794 -1.8506 -0.3670
 3050SOL    HW2 9467   0.853   0.246   0.430 -1.6344  1.5233  0.4149
 3051SOL     OW 9468   1.260   0.881   3.376  0.0134  0.5051  0.0033
 3051SOL    HW1 9469   1.245   0.968   3.340  0.8319  0.5346 -0.2785
 3051SOL    HW2 9470   1.283   0.897   3.468 -0.2133  0.5594  0.0509
 3052SOL     OW 9471   4.346   4.246   4.691 -0.2251  0.0771  0.0428
 3052SOL    HW1 9472   4.380   4.199   4.614 -0.4887  0.6227 -0.4212
 3052SOL    HW2 9473   4.279   4.188   4.727  0.7575 -0.7421  0.6144
 3053SOL     OW 9474   4.272   1.205   5.372 -0.8939 -0.8168 -0.4463
 3053SOL    HW1 9475   4.220   1.165   5.441  0.9709  0.7718  2.0437
 3053SOL    HW2 9476   4.331   1.136   5.343 -1.3935 -1.3803 -0.1492
 3054SOL     OW 9477   5.181   1.097   3.113  0.3549  0.1531 -0.7355
 3054SOL    HW1 9478   5.101   1.059   3.151  0.2132  1.1691  0.0219
 3054SOL    HW2 9479   5.176   1.190   3.134  1.5443  0.3033 -1.0426
 3055SOL     OW 9480   4.451   0.359   4.730  0.0879  0.6836 -0.3398
 3055SOL    HW1 9481   4.422   0.438   4.684 -1.7378  0.5063  0.4134
 3055SOL    HW2 9482   4.507   0.391   4.800  1.0195  1.1294 -1.2554
 3056SOL     OW 9483   0.011   4.589   5.164 -0.2761  0.0710  0.1497
 3056SOL    HW1 9484   0.056   4.672   5.179  0.5711  0.0124 -1.7684
 3056SOL    HW2 9485   0.022   4.541   5.246 -0.7626  1.8121  1.2779
 3057SOL     OW 9486   2.895   0.972   2.665 -0.1336  0.0545 -0.6581
 3057SOL    HW1 9487   2.957   0.904   2.694  0.5892  0.3679 -1.4151
 3057SOL    HW2 9488   2.915   0.984   2.572 -0.4686  1.0804 -0.6062
 3058SOL     OW 9489   0.995   4.778   1.667 -0.2296  0.2759 -0.3656
 3058SOL    HW1 9490   1.060   4.848   1.672  1.5641 -1.4006  2.1968
 3058SOL    HW2 9491   1.041   4.707   1.622 -0.7657 -0.4242  0.1733
 3059SOL     OW 9492   4.385   3.268   3.082 -0.1198  0.3704  0.1221
 3059SOL    HW1 9493   4.387   3.176   3.059  0.6047  0.3947  0.0436
 3059SOL    HW2 9494   4.309   3.304   3.037 -0.8666 -0.3503  0.7939
 3060SOL     OW 9495   2.461   0.063   4.279 -0.3165 -0.1135  0.0447
 3060SOL    HW1 9496   2.406   0.071   4.201 -1.6820 -1.4231  0.8072
 3060SOL    HW2 9497   2.511  -0.018   4.264 -0.3717 -0.2121  0.3870
 3061SOL     OW 9498   5.112   2.184   5.327  0.2360 -0.0786  0.0068
 3061SOL    HW1 9499   5.023   2.173   5.359  0.3689  1.2232  0.9054
 3061SOL    HW2 9500   5.103   2.231   5.244 -0.1110 -3.4785 -2.0774
 3062SOL     OW 9501   2.557   1.512   0.433  0.1546  0.4068 -0.3133
 3062SOL    HW1 9502   2.569   1.517   0.528 -0.5852  1.3777 -0.2549
 3062SOL    HW2 9503   2.556   1.418   0.414  2.2230  0.2126  0.3635
 3063SOL     OW 9504   1.504   2.411   1.561 -0.5343 -0.1810 -0.1539
 3063SOL    HW1 9505   1.419   2.446   1.588 -1.3657 -1.3392 -1.1458
 3063SOL    HW2 9506   1.546   2.384   1.642  0.1525  2.9846  0.6821
 3064SOL     OW 9507   3.212   1.176   2.544 -0.2512 -0.1614 -0.2443
 3064SOL    HW1 9508   3.235   1.152   2.634 -0.6441 -2.0219 -0.6017
 3064SOL    HW2 9509   3.239   1.100   2.492  0.1434  0.9637 -1.7386
 3065SOL     OW 9510   2.107   1.464   5.367 -0.0402 -0.0745  0.0921
 3065SOL    HW1 9511   2.082   1.376   5.338 -0.4213 -0.5235  1.7035
 3065SOL    HW2 9512   2.108   1.516   5.287  2.7144 -2.0615 -1.3373
 3066SOL     OW 9513   3.993   3.482   0.351 -0.8078  0.1891 -0.5415
 3066SOL    HW1 9514   4.006   3.561   0.404 -1.1130 -0.5713  0.7006
 3066SOL    HW2 9515   3.914   3.442   0.386 -0.4892 -0.8333 -0.9429
 3067SOL     OW 9516   2.688   4.599   0.279 -0.1622  0.1028  0.7158
 3067SOL    HW1 9517   2.607   4.563   0.315 -0.2936  1.2165  1.5707
 3067SOL    HW2 9518   2.670   4.692   0.267  0.4390  0.0693 -0.6865
 3068SOL     OW 9519   0.748   2.109   4.511  0.1537  0.0694  0.4342
 3068SOL    HW1 9520   0.662   2.138   4.479  0.6341  1.3320  0.2592
 3068SOL    HW2 9521   0.805   2.184   4.499  1.5398 -1.0555 -0.3779
 3069SOL     OW 9522   0.568   0.245   0.611  0.7776 -0.5348 -0.3434
 3069SOL    HW1 9523   0.612   0.324   0.642  1.8887 -1.8992  1.8185
 3069SOL    HW2 9524   0.502   0.226   0.677  0.0002 -1.0011 -1.2277
 3070SOL     OW 9525   3.280   2.610   4.638  0.1837  0.4852  0.2491
 3070SOL    HW1 9526   3.191   2.635   4.662  0.3645  1.1795  0.2148
 3070SOL    HW2 9527   3.328   2.692   4.633  0.6739  0.1765 -0.3583
 3071SOL     OW 9528   0.145   2.751   0.394  0.6127 -0.3405  0.1734
 3071SOL    HW1 9529   0.064   2.708   0.364 -0.0057 -0.4311  1.8503
 3071SOL    HW2 9530   0.199   2.679   0.428  0.3868 -0.0341  1.2173
 3072SOL     OW 9531   2.361   5.135   0.242  0.3967  0.1021 -0.2910
 3072SOL    HW1 9532   2.315   5.134   0.158 -0.0584  0.0820 -0.0494
 3072SOL    HW2 9533   2.418   5.059   0.240 -0.2322 -0.3853 -0.2499
 3073SOL     OW 9534   3.059   4.758   1.795 -0.1516  0.2257  0.5741
 3073SOL    HW1 9535   3.010   4.712   1.727 -0.9587  0.5915  0.8913
 3073SOL    HW2 9536   3.081   4.843   1.755 -0.2186  0.2574  0.6037
 3074SOL     OW 9537   3.303   2.354   1.082 -0.5346  0.1975 -0.3050
 3074SOL    HW1 9538   3.258   2.424   1.129 -0.6760  1.0574 -1.6765
 3074SOL    HW2 9539   3.330   2.394   0.999  0.8733 -0.8980 -0.4168
 3075SOL     OW 9540   4.395   5.068   0.254 -0.1287 -0.0571 -0.1538
 3075SOL    HW1 9541   4.374   5.053   0.346 -0.9063  1.7674  0.0004
 3075SOL    HW2 9542   4.438   5.153   0.252 -2.4781  1.2129 -1.7185
 3076SOL     OW 9543   1.570   2.772   5.306 -0.0469 -1.0145  0.0419
 3076SOL    HW1 9544   1.619   2.697   5.340  0.1996  0.2973  2.9031
 3076SOL    HW2 9545   1.528   2.810   5.383 -0.9164  1.2582 -1.4458
 3077SOL     OW 9546   2.659   5.435   2.230  0.4030 -0.7945  0.5099
 3077SOL    HW1 9547   2.693   5.479   2.152  1.9406 -2.7150 -0.0088
 3077SOL    HW2 9548   2.654   5.504   2.296  2.1131  0.2969 -0.4133
 3078SOL     OW 9549   1.094   4.647   5.148  0.0816  0.5152 -0.2825
 3078SOL    HW1 9550   1.170   4.703   5.157  0.9244 -0.1583 -2.5000
 3078SOL    HW2 9551   1.113   4.592   5.072 -0.3739 -3.2582  2.0625
 3079SOL     OW 9552   1.628   4.798   2.790  0.5830  0.2673  0.0651
 3079SOL    HW1 9553   1.640   4.711   2.826 -0.9769 -0.9741 -2.1968
 3079SOL    HW2 9554   1.643   4.789   2.696 -1.8860  1.8404 -0.5997
 3080SOL     OW 9555   1.699   1.114   2.713 -0.0932 -0.8409  0.3852
 3080SOL    HW1 9556   1.778   1.076   2.676 -0.0786  0.1262 -0.6258
 3080SOL    HW2 9557   1.635   1.112   2.642 -0.1110  0.9173  0.3125
 3081SOL     OW 9558   2.050   4.696   0.915 -0.4395  0.3328  0.1822
 3081SOL    HW1 9559   1.966   4.736   0.939 -1.0526  1.0156 -2.7397
 3081SOL    HW2 9560   2.095   4.764   0.865  0.5916 -1.0191 -0.7750
 3082SOL     OW 9561   4.096   3.106   1.127  0.4509  0.1470 -0.4987
 3082SOL    HW1 9562   4.099   3.065   1.214 -0.0324  0.6916 -0.2238
 3082SOL    HW2 9563   4.003   3.108   1.105  0.4501  1.2417 -0.4405
 3083SOL     OW 9564   3.108   2.058   2.044 -0.2374 -0.0126 -0.1840
 3083SOL    HW1 9565   3.033   2.069   1.984  0.4507  0.0787 -1.0512
 3083SOL    HW2 9566   3.184   2.080   1.990  0.4766 -0.7879  0.4942
 3084SOL     OW 9567   2.458   2.135   5.006  0.0772 -0.8401 -0.1243
 3084SOL    HW1 9568   2.495   2.184   5.079 -1.4217  1.2056 -0.6511
 3084SOL    HW2 9569   2.363   2.148   5.014 -0.2323 -1.9708 -1.4961
 3085SOL     OW 9570   3.101   3.619   2.526  0.4585  0.1453  1.2272
 3085SOL    HW1 9571   3.028   3.673   2.558  1.2450  0.8524  1.8686
 3085SOL    HW2 9572   3.059   3.539   2.494 -0.6188  0.6216  1.4015
 3086SOL     OW 9573   2.072   4.456   1.043 -0.2586 -0.0875 -0.0208
 3086SOL    HW1 9574   2.064   4.543   1.005 -0.8580 -0.2029 -0.1721
 3086SOL    HW2 9575   2.131   4.409   0.984 -1.9131 -0.5574 -1.3828
 3087SOL     OW 9576   3.303   2.114   1.562  0.0174  0.2954  0.6178
 3087SOL    HW1 9577   3.341   2.118   1.474  1.7665  2.0978  1.3566
 3087SOL    HW2 9578   3.345   2.038   1.603 -1.2453 -0.9091 -0.2369
 3088SOL     OW 9579   1.355   5.139   2.627  0.2163  0.2567 -0.1584
 3088SOL    HW1 9580   1.375   5.049   2.602 -1.5635  0.1345 -1.3833
 3088SOL    HW2 9581   1.298   5.130   2.705  1.7634  0.4465  1.0381
 3089SOL     OW 9582   5.134   0.549   4.109  0.0051 -0.3608 -0.0635
 3089SOL    HW1 9583   5.227   0.531   4.121 -0.4663 -2.5461  0.8907
 3089SOL    HW2 9584   5.094   0.527   4.193 -1.3996  0.3698 -0.5007
 3090SOL     OW 9585   0.545   3.953   5.077 -0.3988 -0.2930  0.3364
 3090SOL    HW1 9586   0.518   3.908   5.157 -0.1540 -0.4502  0.3309
 3090SOL    HW2 9587   0.592   3.886   5.027  1.0550  0.3027  0.8733
 3091SOL     OW 9588   3.674   1.189   2.646 -0.1667  0.0118  0.0556
 3091SOL    HW1 9589   3.686   1.245   2.570  1.5387  0.8231  0.8812
 3091SOL    HW2 9590   3.625   1.243   2.708  0.1427  0.0507  0.2681
 3092SOL     OW 9591   4.220   0.678   2.810  0.3307 -0.3595 -0.2392
 3092SOL    HW1 9592   4.126   0.681   2.789  0.1723  0.9551  0.5662
 3092SOL    HW2 9593   4.264   0.702   2.728 -0.1792  2.2099  0.1771
 3093SOL     OW 9594   2.368   0.383   5.080  0.4664 -0.5640 -0.6213
 3093SOL    HW1 9595   2.402   0.459   5.126  0.2150  0.2544 -1.7533
 3093SOL    HW2 9596   2.300   0.348   5.138  0.2377  0.3611 -0.3194
 3094SOL     OW 9597   2.377   4.061   2.139 -0.1056  0.3323 -0.8473
 3094SOL    HW1 9598   2.385   3.973   2.176  0.1491  0.5127 -0.4623
 3094SOL    HW2 9599   2.283   4.070   2.121 -0.2990  0.3571  0.0788
 3095SOL     OW 9600   0.627   0.243   3.496 -0.4721  0.0106 -0.6033
 3095SOL    HW1 9601   0.601   0.278   3.582  1.9783 -0.8119  0.5667
 3095SOL    HW2 9602   0.642   0.320   3.442  1.2111  0.7432  0.7861
 3096SOL     OW 9603   1.682   2.905   5.083  0.3651 -0.2182  0.6701
 3096SOL    HW1 9604   1.630   2.850   5.142 -0.4857  1.3657  1.4674
 3096SOL    HW2 9605   1.765   2.917   5.129  0.9342 -1.5432  0.0620
 3097SOL     OW 9606   3.098   0.663   3.777 -0.1843 -0.2863 -0.2803
 3097SOL    HW1 9607   3.029   0.617   3.728  0.7082 -1.1709 -0.7412
 3097SOL    HW2 9608   3.162   0.595   3.798  1.5277  0.8460 -1.5908
 3098SOL     OW 9609   2.954   2.085   2.309  0.5187 -0.3590 -0.2851
 3098SOL    HW1 9610   2.985   2.110   2.222 -0.6548  2.3064 -0.0447
 3098SOL    HW2 9611   2.862   2.110   2.309  0.9086  1.5145  2.2760
 3099SOL     OW 9612   0.273   4.400   3.162 -0.3335  0.1847 -0.4359
 3099SOL    HW1 9613   0.234   4.456   3.095 -1.3795 -2.4504 -2.1850
 3099SOL    HW2 9614   0.202   4.387   3.226 -0.1049  0.7497 -0.0541
 3100SOL     OW 9615   3.666   3.906   3.615  0.3833  0.0645 -0.0956
 3100SOL    HW1 9616   3.688   3.829   3.562 -1.1311  0.9075 -2.1147
 3100SOL    HW2 9617   3.579   3.887   3.650  1.2161 -0.3172  1.8746
 3101SOL     OW 9618   3.100   1.422   1.675 -0.1535  0.2180 -0.1605
 3101SOL    HW1 9619   3.135   1.502   1.636  1.6661 -0.1370  0.6327
 3101SOL    HW2 9620   3.120   1.431   1.768 -0.2146 -1.0139 -0.0169
 3102SOL     OW 9621   0.292   0.461   4.074  0.1780 -0.1328  0.1774
 3102SOL    HW1 9622   0.229   0.427   4.138 -0.6283  1.3789  0.2402
 3102SOL    HW2 9623   0.346   0.385   4.052 -1.4693 -1.4398  0.3420
 3103SOL     OW 9624   1.021   4.093   2.486  0.9802  0.0415  0.4176
 3103SOL    HW1 9625   1.066   4.111   2.403  0.6778 -0.6665  0.0858
 3103SOL    HW2 9626   0.928   4.100   2.465  0.9152  0.3629  0.8202
 3104SOL     OW 9627   4.561   2.963   0.634  0.3790 -0.1492  0.0786
 3104SOL    HW1 9628   4.502   2.953   0.709 -1.5199  0.8550 -1.2009
 3104SOL    HW2 9629   4.636   3.011   0.669 -0.4911  0.3750  1.3180
 3105SOL     OW 9630   2.032   1.624   2.699  0.0250  0.4497  0.0912
 3105SOL    HW1 9631   2.077   1.644   2.617  1.7631 -1.4129  0.5117
 3105SOL    HW2 9632   2.031   1.529   2.704  1.1453  0.4799  2.8167
 3106SOL     OW 9633   3.543   2.098   2.122  0.3339  0.4246 -0.7518
 3106SOL    HW1 9634   3.473   2.121   2.061  0.1819  0.1305 -0.6885
 3106SOL    HW2 9635   3.607   2.050   2.069  0.7578  1.1790 -0.9331
 3107SOL     OW 9636   1.851   2.406   2.916  0.0070  0.5465  0.7233
 3107SOL    HW1 9637   1.940   2.431   2.943  0.3504  0.3497 -0.1936
 3107SOL    HW2 9638   1.810   2.376   2.997  1.4874 -1.4261  0.8324
 3108SOL     OW 9639   1.973   3.392   1.683 -0.0002 -0.1220 -0.4463
 3108SOL    HW1 9640   1.885   3.400   1.720 -0.1269  0.0840 -0.7855
 3108SOL    HW2 9641   2.017   3.327   1.737 -0.1752  0.1963  0.0836
 3109SOL     OW 9642   3.649   2.473   3.855  0.0065 -0.5804  0.0820
 3109SOL    HW1 9643   3.603   2.391   3.840  1.5394 -1.6935  1.1499
 3109SOL    HW2 9644   3.623   2.500   3.944  1.2587 -1.1490  0.6401
 3110SOL     OW 9645   0.607   4.709   2.275 -0.1013  0.4064 -0.4941
 3110SOL    HW1 9646   0.536   4.770   2.296  1.2203  1.4009  1.3525
 3110SOL    HW2 9647   0.613   4.712   2.179 -1.2657  1.7904 -0.5608
 3111SOL     OW 9648   1.489   4.779   3.585  0.0866 -0.2238  0.5211
 3111SOL    HW1 9649   1.549   4.852   3.600  1.1732 -0.7346 -1.1628
 3111SOL    HW2 9650   1.543   4.701   3.593 -0.3539 -0.6953 -0.8945
 3112SOL     OW 9651   4.088   3.105   5.131 -0.0895  0.6605  0.5625
 3112SOL    HW1 9652   4.059   3.022   5.168 -0.7698  0.5214 -0.2606
 3112SOL    HW2 9653   4.117   3.156   5.207  0.1530 -0.2466  1.0964
 3113SOL     OW 9654   3.042   1.607   2.182  0.4790  0.4563  0.0239
 3113SOL    HW1 9655   2.987   1.637   2.109  0.1546 -0.2702 -0.0361
 3113SOL    HW2 9656   3.085   1.686   2.214  1.2232  0.6753 -1.4559
 3114SOL     OW 9657   3.637   3.581   0.355  0.3952 -0.0341  0.0388
 3114SOL    HW1 9658   3.549   3.579   0.394  0.3793 -0.2490 -0.0070
 3114SOL    HW2 9659   3.692   3.620   0.423  0.6747 -1.8796  0.9339
 3115SOL     OW 9660   1.171   0.291   1.419  0.3264  0.2340 -0.0311
 3115SOL    HW1 9661   1.176   0.207   1.465  0.1095  0.5224  0.5217
 3115SOL    HW2 9662   1.079   0.314   1.419  0.0769 -0.5161 -2.0159
 3116SOL     OW 9663   0.075   3.920   4.704  0.0043 -0.0484 -0.0602
 3116SOL    HW1 9664   0.101   3.891   4.791  1.0073 -1.9314 -0.9336
 3116SOL    HW2 9665   0.151   3.902   4.649 -0.6772  0.9080 -1.3762
 3117SOL     OW 9666   2.972   0.295   3.785 -0.2002  0.3747 -0.2189
 3117SOL    HW1 9667   2.898   0.351   3.763 -0.8572  0.1646  1.3212
 3117SOL    HW2 9668   3.014   0.339   3.860 -0.0840 -0.6185  0.3208
 3118SOL     OW 9669   0.579   2.990   0.794 -0.4162  0.1226  0.4364
 3118SOL    HW1 9670   0.550   2.908   0.754 -1.4044 -0.3497  2.0212
 3118SOL    HW2 9671   0.657   2.965   0.844 -0.1869  0.3432  0.1890
 3119SOL     OW 9672   5.206   4.556   4.901 -0.0292  0.1284  0.2941
 3119SOL    HW1 9673   5.237   4.577   4.989  1.5021  0.5204 -0.3095
 3119SOL    HW2 9674   5.195   4.461   4.901  1.8993 -0.1447  0.3600
 3120SOL     OW 9675   0.870   4.036   2.700  0.0601  0.6574  0.4231
 3120SOL    HW1 9676   0.875   3.942   2.718 -2.9557  0.3133 -0.0107
 3120SOL    HW2 9677   0.950   4.055   2.650 -0.9515 -2.5795 -2.9175
 3121SOL     OW 9678   4.595   1.510   4.674 -0.1611 -0.4060  0.2967
 3121SOL    HW1 9679   4.623   1.554   4.593 -1.0979 -0.3826 -0.0300
 3121SOL    HW2 9680   4.652   1.433   4.680  0.2814 -0.1193 -0.0889
 3122SOL     OW 9681   2.774   5.490   3.448  0.5905  0.5868 -0.2698
 3122SOL    HW1 9682   2.759   5.556   3.516  2.0376 -0.0703  0.7353
 3122SOL    HW2 9683   2.811   5.539   3.375  1.5165  0.9322  0.4127
 3123SOL     OW 9684   2.189   5.410   0.172 -0.6629  0.7156 -0.2235
 3123SOL    HW1 9685   2.216   5.345   0.236  1.2968  0.1377 -1.5338
 3123SOL    HW2 9686   2.271   5.445   0.137 -1.6588  2.7089 -0.7576
 3124SOL     OW 9687   0.502   5.344   5.341 -0.0442 -0.8186 -0.1797
 3124SOL    HW1 9688   0.435   5.413   5.339  1.4499  0.6896 -1.7566
 3124SOL    HW2 9689   0.553   5.362   5.420 -0.3032 -0.7825 -0.0195
 3125SOL     OW 9690   0.593   0.671   3.784 -0.3669  0.0643  0.5615
 3125SOL    HW1 9691   0.529   0.669   3.856 -0.5419  2.8748  0.5996
 3125SOL    HW2 9692   0.542   0.697   3.707  0.2696 -0.3463 -0.0047
 3126SOL     OW 9693   4.090   0.143   5.318  0.6195 -0.0562 -0.6793
 3126SOL    HW1 9694   4.096   0.239   5.313 -0.9749  0.3117  2.3013
 3126SOL    HW2 9695   4.013   0.121   5.266 -0.3937  0.6036  0.4820
 3127SOL     OW 9696   0.710   0.440   1.477 -0.0997  0.0566 -0.4775
 3127SOL    HW1 9697   0.778   0.471   1.536 -0.4327 -1.0312  0.5376
 3127SOL    HW2 9698   0.676   0.519   1.435  0.3216  0.8359  0.6092
 3128SOL     OW 9699   3.402   2.064   3.211  0.0486  0.2010 -0.4909
 3128SOL    HW1 9700   3.351   2.102   3.139  0.9377 -1.1594 -1.8962
 3128SOL    HW2 9701   3.344   1.997   3.248  0.7114 -1.3258 -2.0698
 3129SOL     OW 9702   4.777   5.068   2.924  0.0306  0.1931  0.3421
 3129SOL    HW1 9703   4.803   5.153   2.888 -0.0952  0.3040  0.5182
 3129SOL    HW2 9704   4.842   5.050   2.992  1.1090 -0.6601 -0.8639
 3130SOL     OW 9705   4.319   2.670   0.645 -0.3940  0.2679  0.3735
 3130SOL    HW1 9706   4.255   2.740   0.660 -3.1866 -2.0764  0.3449
 3130SOL    HW2 9707   4.349   2.685   0.555  0.0227  2.0647  0.7621
 3131SOL     OW 9708   1.235   1.341   0.899 -0.0744  0.0507 -0.2421
 3131SOL    HW1 9709   1.317   1.323   0.854  0.1424 -0.2408  0.2639
 3131SOL    HW2 9710   1.168   1.331   0.832  0.1485 -1.3789 -0.2917
 3132SOL     OW 9711   2.888   2.773   1.739 -0.1076  0.7901  0.5522
 3132SOL    HW1 9712   2.827   2.719   1.789 -1.3215 -0.2221 -1.8444
 3132SOL    HW2 9713   2.834   2.843   1.703  0.0875 -0.0521 -1.5032
 3133SOL     OW 9714   3.966   0.933   3.017  0.6147 -0.1727 -0.5714
 3133SOL    HW1 9715   3.898   1.000   3.007 -0.2947 -0.7201  1.4823
 3133SOL    HW2 9716   4.019   0.942   2.938 -0.2054  2.1131 -0.9569
 3134SOL     OW 9717   3.353   3.061   3.454 -0.5708 -0.1863 -0.1020
 3134SOL    HW1 9718   3.441   3.052   3.492 -0.3978  0.1283 -0.4237
 3134SOL    HW2 9719   3.296   3.078   3.530 -0.2870  0.0466  0.0630
 3135SOL     OW 9720   3.079   3.533   3.393 -0.1150  0.1377 -0.5766
 3135SOL    HW1 9721   2.995   3.555   3.353  0.2799  1.3820 -0.7581
 3135SOL    HW2 9722   3.071   3.440   3.416 -1.5617  0.2615 -0.5050
 3136SOL     OW 9723   5.527   5.145   0.056  0.3922 -0.2038  0.2421
 3136SOL    HW1 9724   5.484   5.120  -0.026  1.0544  0.2632 -0.2606
 3136SOL    HW2 9725   5.455   5.157   0.118 -0.1608 -0.0068 -0.4227
 3137SOL     OW 9726   2.482   2.339   2.974 -0.7069 -0.1204  0.1331
 3137SOL    HW1 9727   2.478   2.271   2.907  2.3163 -0.5375  0.2403
 3137SOL    HW2 9728   2.523   2.414   2.930 -1.4869  0.6926  0.7504
 3138SOL     OW 9729   2.695   2.264   0.877 -0.9623 -0.1503  0.5132
 3138SOL    HW1 9730   2.688   2.277   0.972 -0.2521 -0.2289  0.5853
 3138SOL    HW2 9731   2.703   2.352   0.841 -0.8268 -0.1408  0.5663
 3139SOL     OW 9732   2.246   1.617   3.725 -0.3355  0.1197 -0.8686
 3139SOL    HW1 9733   2.304   1.552   3.686  1.6701  0.2958  1.6193
 3139SOL    HW2 9734   2.165   1.569   3.742 -0.3256 -0.6278 -2.6592
 3140SOL     OW 9735   4.429   2.618   0.371 -0.0578  0.2705  0.3055
 3140SOL    HW1 9736   4.507   2.673   0.377  0.0499  0.0876  0.6342
 3140SOL    HW2 9737   4.462   2.528   0.379 -0.3408  0.2085  0.8674
 3141SOL     OW 9738   2.427   0.259   2.102 -0.3934 -0.4653 -0.5190
 3141SOL    HW1 9739   2.452   0.349   2.126 -1.3349 -0.1289 -0.7361
 3141SOL    HW2 9740   2.483   0.237   2.029 -0.3235  0.0493 -0.6246
 3142SOL     OW 9741   1.766   2.841   3.769 -0.1077 -0.2598  0.5109
 3142SOL    HW1 9742   1.768   2.918   3.825 -0.0045 -1.4636  2.2328
 3142SOL    HW2 9743   1.731   2.873   3.685  3.3843  2.3803 -0.1290
 3143SOL     OW 9744   4.437   0.268   0.247 -0.0852  0.1396 -0.4415
 3143SOL    HW1 9745   4.508   0.207   0.267  0.2560  0.2061 -1.3760
 3143SOL    HW2 9746   4.476   0.329   0.183 -0.5503  1.0651  0.1406
 3144SOL     OW 9747   0.581   2.671   4.647 -0.1455  0.2174 -0.7493
 3144SOL    HW1 9748   0.671   2.674   4.678  0.0530 -0.3698 -1.2388
 3144SOL    HW2 9749   0.535   2.617   4.711 -0.5606  1.9275  0.4496
 3145SOL     OW 9750   2.470   0.010   4.552 -0.3731 -0.3195 -0.3108
 3145SOL    HW1 9751   2.442   0.051   4.470 -1.5704  1.2458  0.8129
 3145SOL    HW2 9752   2.535   0.070   4.588 -0.5881 -0.4773  0.3547
 3146SOL     OW 9753   0.747   3.374   4.399 -0.1077 -0.3140 -0.7839
 3146SOL    HW1 9754   0.708   3.444   4.347  1.4925  1.9633  0.8454
 3146SOL    HW2 9755   0.674   3.337   4.449 -0.7665  1.4353 -0.3780
 3147SOL     OW 9756   0.141   2.395   4.853  0.0794  0.1922 -0.6785
 3147SOL    HW1 9757   0.129   2.330   4.922  0.0761 -0.7058 -1.5173
 3147SOL    HW2 9758   0.227   2.433   4.871  1.0231 -1.5372 -1.3981
 3148SOL     OW 9759   4.350   1.408   4.749 -0.1940 -0.5828 -0.8133
 3148SOL    HW1 9760   4.430   1.456   4.729  0.3999 -1.3931 -0.4683
 3148SOL    HW2 9761   4.320   1.445   4.833 -1.4221  1.2250 -1.9688
 3149SOL     OW 9762   2.804   1.003   1.138 -0.2216  0.3940 -0.0066
 3149SOL    HW1 9763   2.752   1.005   1.057  0.0690  0.0263 -0.2036
 3149SOL    HW2 9764   2.894   1.014   1.108  0.0071 -0.9085  0.1675
 3150SOL     OW 9765   4.244   2.058   1.278  0.1007  0.4530  0.0190
 3150SOL    HW1 9766   4.161   2.016   1.254 -0.9963  2.3922  0.2056
 3150SOL    HW2 9767   4.272   2.013   1.358 -1.8916  1.0872  1.1486
 3151SOL     OW 9768   4.443   1.451   3.197  0.2373  0.3388  0.4743
 3151SOL    HW1 9769   4.397   1.428   3.278  0.1370 -0.4161  0.2090
 3151SOL    HW2 9770   4.533   1.465   3.224  0.1204  0.4935  0.7852
 3152SOL     OW 9771   1.792   3.330   3.064 -0.5119  0.3399 -0.1945
 3152SOL    HW1 9772   1.774   3.271   2.991 -4.3599 -0.1776  0.9179
 3152SOL    HW2 9773   1.875   3.300   3.100 -1.7926 -3.8784 -0.2599
 3153SOL     OW 9774   3.036   0.285   5.021 -0.2902  0.1529  0.1160
 3153SOL    HW1 9775   3.080   0.221   4.965 -1.0139  1.1829 -1.7352
 3153SOL    HW2 9776   2.949   0.246   5.037 -0.0946 -0.1270  0.5306
 3154SOL     OW 9777   4.999   0.994   0.144 -0.3321  0.2870 -0.0008
 3154SOL    HW1 9778   4.970   0.917   0.096 -0.5239  1.0762 -1.1905
 3154SOL    HW2 9779   4.923   1.052   0.146 -0.4766  0.1016  1.6755
 3155SOL     OW 9780   2.688   1.925   2.176 -0.3340 -0.2052 -0.4868
 3155SOL    HW1 9781   2.674   1.896   2.266 -0.2275 -0.2932 -0.4985
 3155SOL    HW2 9782   2.675   2.020   2.179 -0.3392 -0.2092 -0.3803
 3156SOL     OW 9783   4.394   3.034   4.491  0.0527 -0.6140 -0.0381
 3156SOL    HW1 9784   4.329   2.968   4.468  0.0169 -0.4942 -0.2782
 3156SOL    HW2 9785   4.470   3.013   4.438 -0.1326 -0.1635 -0.4950
 3157SOL     OW 9786   1.469   4.242   5.531 -0.0395  0.2424 -0.4059
 3157SOL    HW1 9787   1.450   4.224   5.439  0.7301  0.9542 -0.7045
 3157SOL    HW2 9788   1.404   4.190   5.579  0.4392 -1.2382 -1.3039
 3158SOL     OW 9789   2.259   2.977   4.406  0.1237  0.1664  0.4243
 3158SOL    HW1 9790   2.185   2.921   4.383 -0.7618  1.2114  0.6922
 3158SOL    HW2 9791   2.273   2.961   4.499  2.8215 -3.0075 -0.3214
 3159SOL     OW 9792   3.079   2.600   1.615  0.0809 -1.1974 -0.1266
 3159SOL    HW1 9793   3.009   2.663   1.631 -1.9404 -2.6418 -2.5334
 3159SOL    HW2 9794   3.100   2.565   1.702 -1.2580  0.2288  0.8107
 3160SOL     OW 9795   5.064   3.429   1.258  0.5074  0.2863 -0.4550
 3160SOL    HW1 9796   4.996   3.468   1.203  0.5101 -1.2712 -1.6530
 3160SOL    HW2 9797   5.018   3.360   1.307  0.5265  1.5884  1.4821
 3161SOL     OW 9798   1.741   0.358   0.857 -0.2090 -0.0287  0.3165
 3161SOL    HW1 9799   1.806   0.395   0.917 -0.3148 -1.1650  1.1607
 3161SOL    HW2 9800   1.671   0.423   0.855  1.1182  1.4297 -0.9620
 3162SOL     OW 9801   3.304   1.060   2.792 -0.4532 -0.3973  0.2373
 3162SOL    HW1 9802   3.378   1.001   2.801 -0.0333  0.0621 -0.1327
 3162SOL    HW2 9803   3.304   1.111   2.874 -1.2122 -1.3378  0.8401
 3163SOL     OW 9804   3.211   2.730   3.931 -0.3225 -0.4327  0.1827
 3163SOL    HW1 9805   3.285   2.748   3.989  0.1008 -1.8201  0.1125
 3163SOL    HW2 9806   3.240   2.760   3.845 -0.1219 -0.3154  0.2896
 3164SOL     OW 9807   3.745   2.714   4.124 -1.0649 -0.6482  0.4694
 3164SOL    HW1 9808   3.777   2.625   4.138 -0.6793 -0.4472  0.9059
 3164SOL    HW2 9809   3.804   2.750   4.058  0.5716  0.1853  2.2578
 3165SOL     OW 9810   2.980   1.270   4.804 -0.1048  0.3094 -0.1694
 3165SOL    HW1 9811   2.955   1.181   4.778  1.3883  0.2112 -1.3779
 3165SOL    HW2 9812   2.989   1.266   4.899  1.8542 -1.3784 -0.3549
 3166SOL     OW 9813   0.761   4.495   5.019  0.4507  0.1368  0.3094
 3166SOL    HW1 9814   0.778   4.497   4.925  1.2432  0.9192  0.4605
 3166SOL    HW2 9815   0.707   4.573   5.036 -0.5621 -0.5484  0.3587
 3167SOL     OW 9816   2.337   3.277   1.823  0.2383  0.2255 -0.5464
 3167SOL    HW1 9817   2.289   3.203   1.859 -1.1173  0.3096 -2.0609
 3167SOL    HW2 9818   2.355   3.252   1.732  0.6492  1.3289 -0.7814
 3168SOL     OW 9819   3.026   5.365   3.797  0.1152 -0.2120  0.3238
 3168SOL    HW1 9820   2.981   5.301   3.741  1.2088 -1.0247  0.3569
 3168SOL    HW2 9821   3.117   5.364   3.767  1.1349 -1.8541  3.0888
 3169SOL     OW 9822   3.886   1.176   4.350 -0.4976  0.0641  0.1611
 3169SOL    HW1 9823   3.881   1.180   4.445 -2.0693 -0.6270  0.1539
 3169SOL    HW2 9824   3.904   1.265   4.322 -1.2699  0.5173  1.0731
 3170SOL     OW 9825   1.988   1.937   0.872  0.1538 -0.2643 -0.2801
 3170SOL    HW1 9826   2.030   1.860   0.911 -0.8355 -0.5889  0.1862
 3170SOL    HW2 9827   1.938   1.976   0.944  0.4541  0.6840 -0.5712
 3171SOL     OW 9828   1.694   3.821   2.903 -0.2157  0.7155 -0.1230
 3171SOL    HW1 9829   1.781   3.829   2.864  0.1241  0.3017  0.5344
 3171SOL    HW2 9830   1.695   3.737   2.949 -1.8166 -0.5398 -2.1813
 3172SOL     OW 9831   2.197   5.414   4.198 -0.2127  0.5767 -0.2075
 3172SOL    HW1 9832   2.290   5.409   4.176 -0.2904  1.5136 -0.8683
 3172SOL    HW2 9833   2.179   5.334   4.247  0.8922  0.2857 -0.2399
 3173SOL     OW 9834   4.420   0.087   2.066 -0.1262 -0.4943 -0.0850
 3173SOL    HW1 9835   4.375   0.082   2.150 -0.1830  1.0930 -0.0056
 3173SOL    HW2 9836   4.513   0.075   2.088  0.0914  1.8057  0.5038
 3174SOL     OW 9837   3.568   1.773   4.188 -0.8283  0.3475  0.1631
 3174SOL    HW1 9838   3.599   1.796   4.276  1.6229  4.1885 -1.4480
 3174SOL    HW2 9839   3.647   1.748   4.141 -2.2255 -2.5242 -0.8427
 3175SOL     OW 9840   2.111   2.112   5.558  0.3329  0.6441 -0.5794
 3175SOL    HW1 9841   2.079   2.199   5.585 -0.7386  0.4151 -1.0751
 3175SOL    HW2 9842   2.108   2.060   5.638  1.3463  1.1559 -0.1911
 3176SOL     OW 9843   2.604   5.296   4.665 -0.1966  0.1425  0.3240
 3176SOL    HW1 9844   2.686   5.316   4.710  1.4539 -2.5982 -1.2032
 3176SOL    HW2 9845   2.618   5.326   4.576 -0.7094 -0.6454 -0.0332
 3177SOL     OW 9846   4.974   2.471   1.035 -0.2071 -0.0100 -0.4219
 3177SOL    HW1 9847   4.887   2.511   1.036 -0.0407  0.3554  0.2465
 3177SOL    HW2 9848   5.032   2.541   1.066  0.4493  0.0238 -1.6694
 3178SOL     OW 9849   5.501   5.058   5.059 -0.2451  0.0188  0.1181
 3178SOL    HW1 9850   5.411   5.088   5.049  0.3740  1.7029 -0.8684
 3178SOL    HW2 9851   5.531   5.041   4.970  0.6763  0.3125  0.3582
 3179SOL     OW 9852   4.898   2.198   3.689 -0.3140 -0.6685 -0.0147
 3179SOL    HW1 9853   4.917   2.115   3.646  0.5291 -0.7914  0.5787
 3179SOL    HW2 9854   4.874   2.173   3.778  2.9853 -0.1450  1.1523
 3180SOL     OW 9855   0.816   3.728   2.346  0.0014 -0.0558 -0.1977
 3180SOL    HW1 9856   0.866   3.654   2.311  0.8380 -0.8098  2.3343
 3180SOL    HW2 9857   0.822   3.795   2.279 -1.0829 -2.3481 -2.7725
 3181SOL     OW 9858   0.338   4.917   2.329 -0.0036  0.2527 -0.3599
 3181SOL    HW1 9859   0.367   4.950   2.414 -0.2750  0.3763 -0.3160
 3181SOL    HW2 9860   0.275   4.849   2.348  0.1474  0.0822 -0.4602
 3182SOL     OW 9861   0.726   4.789   1.565 -0.0688 -0.2917 -0.4527
 3182SOL    HW1 9862   0.770   4.787   1.480  1.9522  0.5290  0.5030
 3182SOL    HW2 9863   0.790   4.753   1.626 -1.7319 -1.4892  0.6525
 3183SOL     OW 9864   4.412   5.366   0.980  0.4193  0.1664 -0.2391
 3183SOL    HW1 9865   4.385   5.417   1.057  0.4996  0.3479 -0.3302
 3183SOL    HW2 9866   4.471   5.424   0.933 -0.2083  0.3453 -0.8308
 3184SOL     OW 9867   4.726   1.303   4.795 -0.2961 -0.0370  0.1412
 3184SOL    HW1 9868   4.741   1.275   4.885  1.0506 -0.4219 -0.1762
 3184SOL    HW2 9869   4.791   1.372   4.780 -1.2233  0.7905 -0.2098
 3185SOL     OW 9870   4.456   2.036   0.710  0.0130  0.1718  0.2958
 3185SOL    HW1 9871   4.451   1.942   0.723  1.2238 -0.1684 -1.3200
 3185SOL    HW2 9872   4.384   2.057   0.651  0.1455  0.1277  0.1153
 3186SOL     OW 9873   3.455   3.203   2.235 -0.1138  0.5293  0.0531
 3186SOL    HW1 9874   3.435   3.264   2.164 -1.6682 -1.1716 -1.0761
 3186SOL    HW2 9875   3.435   3.117   2.199  3.2210 -0.8539  1.1429
 3187SOL     OW 9876   2.817   0.936   3.750  0.2014 -0.2662 -0.1457
 3187SOL    HW1 9877   2.824   0.930   3.655 -0.3920  0.9603 -0.2774
 3187SOL    HW2 9878   2.726   0.962   3.766  1.0927  2.8232  0.5654
 3188SOL     OW 9879   2.823   1.864   5.136 -0.1098  0.0732 -0.0287
 3188SOL    HW1 9880   2.827   1.957   5.112 -0.8959  0.2917  0.6625
 3188SOL    HW2 9881   2.762   1.826   5.072  0.6449 -0.0970 -0.6689
 3189SOL     OW 9882   3.438   2.312   5.368 -0.3062 -0.3173  0.1472
 3189SOL    HW1 9883   3.471   2.240   5.422  0.4102 -1.2229 -1.4128
 3189SOL    HW2 9884   3.395   2.269   5.294  0.7030  0.8042 -1.1560
 3190SOL     OW 9885   2.615   4.652   0.866  0.6813 -0.4994  0.7278
 3190SOL    HW1 9886   2.564   4.716   0.817 -1.6165 -1.2770  1.9644
 3190SOL    HW2 9887   2.651   4.702   0.939 -0.3121 -0.4046  1.1637
 3191SOL     OW 9888   4.766   0.905   5.035 -0.0677 -0.1298  0.0640
 3191SOL    HW1 9889   4.828   0.853   4.984 -1.1550 -2.2022  0.7159
 3191SOL    HW2 9890   4.717   0.840   5.085 -1.6256  1.5580  0.8279
 3192SOL     OW 9891   5.312   0.545   1.381  0.1906  1.0209  0.2871
 3192SOL    HW1 9892   5.232   0.582   1.419 -0.9664 -2.4363  1.6335
 3192SOL    HW2 9893   5.381   0.564   1.445 -0.7337 -0.5014  1.8108
 3193SOL     OW 9894   2.715   5.481   1.730  0.1240 -0.4927 -0.3600
 3193SOL    HW1 9895   2.783   5.543   1.754  0.4416 -0.8417 -0.3422
 3193SOL    HW2 9896   2.755   5.425   1.663  0.5563 -1.9871  1.0742
 3194SOL     OW 9897   0.531   1.653   5.479 -0.0403  0.2571 -0.0961
 3194SOL    HW1 9898   0.483   1.605   5.412 -2.4001 -0.0352  1.6329
 3194SOL    HW2 9899   0.550   1.587   5.546  1.4781  0.6993 -0.0719
 3195SOL     OW 9900   3.544   1.669   2.689  0.0599  0.1976 -0.1685
 3195SOL    HW1 9901   3.556   1.763   2.676  2.0594 -0.1053 -0.8905
 3195SOL    HW2 9902   3.624   1.640   2.732 -1.1497 -0.9748  1.4233
 3196SOL     OW 9903   0.983   1.331   2.108 -0.0148 -0.0227  0.0303
 3196SOL    HW1 9904   1.074   1.300   2.099  0.8921  2.1124  1.0523
 3196SOL    HW2 9905   0.981   1.372   2.195 -1.0134  2.8703 -1.2545
 3197SOL     OW 9906   3.768   4.732   1.201  0.2036 -0.3695 -0.3137
 3197SOL    HW1 9907   3.733   4.819   1.184 -0.9469 -0.9746 -1.1809
 3197SOL    HW2 9908   3.750   4.717   1.294  0.5878  0.3813 -0.1100
 3198SOL     OW 9909   5.066   2.078   3.070  0.4460  0.5843  0.0878
 3198SOL    HW1 9910   4.976   2.058   3.096  0.0821  1.9085 -0.0701
 3198SOL    HW2 9911   5.119   2.008   3.109 -0.7336 -0.7000 -0.5596
 3199SOL     OW 9912   2.884   1.348   1.505  0.0929 -0.4510  0.1255
 3199SOL    HW1 9913   2.920   1.262   1.483  0.5596 -0.8608  2.3298
 3199SOL    HW2 9914   2.937   1.379   1.578 -0.0548  1.7508 -0.6333
 3200SOL     OW 9915   3.122   1.489   4.385 -0.1410  0.5202  0.3104
 3200SOL    HW1 9916   3.043   1.533   4.355  0.2998  2.0847  1.3525
 3200SOL    HW2 9917   3.193   1.551   4.368  0.4911  0.2775  1.9058
 3201SOL     OW 9918   0.617   0.521   0.646  0.1362  0.4222 -0.5995
 3201SOL    HW1 9919   0.663   0.540   0.728  0.8685 -1.0749 -0.6158
 3201SOL    HW2 9920   0.655   0.581   0.582  1.1980  0.0742 -0.3218
 3202SOL     OW 9921   5.198   5.544   4.195 -0.2112  0.0373  0.1445
 3202SOL    HW1 9922   5.275   5.540   4.253 -2.0704  1.5697  2.9880
 3202SOL    HW2 9923   5.223   5.607   4.127  1.2507  0.0152  0.6148
 3203SOL     OW 9924   2.061   2.837   3.139  0.6979  0.3634 -0.1571
 3203SOL    HW1 9925   1.971   2.828   3.171  0.3224  0.3846 -1.1971
 3203SOL    HW2 9926   2.085   2.927   3.160  1.5229 -0.4093  2.7207
 3204SOL     OW 9927   0.823   1.862   4.446  0.2236  0.3254  1.0322
 3204SOL    HW1 9928   0.789   1.939   4.492 -1.9128  0.6254 -0.8601
 3204SOL    HW2 9929   0.849   1.896   4.360  0.9943 -0.7807  0.8118
 3205SOL     OW 9930   5.153   4.353   4.356  0.7371  0.0713  0.2225
 3205SOL    HW1 9931   5.155   4.400   4.272 -1.0619  0.1542  0.1869
 3205SOL    HW2 9932   5.113   4.414   4.417  0.1841 -0.7000  0.6517
 3206SOL     OW 9933   3.572   3.266   3.740 -0.3691  0.2580 -0.0860
 3206SOL    HW1 9934   3.524   3.184   3.750 -2.0615  1.0963 -0.8687
 3206SOL    HW2 9935   3.510   3.334   3.768  0.6495  1.3353 -0.3584
 3207SOL     OW 9936   3.674   5.003   3.114 -0.4416  0.3371  0.4802
 3207SOL    HW1 9937   3.758   4.961   3.096 -1.0212 -0.8191  0.3200
 3207SOL    HW2 9938   3.690   5.096   3.104  0.7758  0.1168  0.2785
 3208SOL     OW 9939   1.371   2.653   5.152  0.2807  0.1176 -0.2921
 3208SOL    HW1 9940   1.289   2.691   5.184  0.5926  1.5597 -1.1354
 3208SOL    HW2 9941   1.440   2.703   5.197  0.7007 -0.2270 -0.5454
 3209SOL     OW 9942   0.699   3.688   5.472 -0.5360  0.1436 -0.2094
 3209SOL    HW1 9943   0.719   3.760   5.412 -2.2322  0.0462 -0.9345
 3209SOL    HW2 9944   0.654   3.730   5.545  3.0603  0.5400  2.0021
 3210SOL     OW 9945   0.854   4.459   3.147 -0.3725 -0.8039  0.9307
 3210SOL    HW1 9946   0.879   4.489   3.235 -1.2280  2.6855  0.1172
 3210SOL    HW2 9947   0.760   4.475   3.142  0.1814  2.7706 -1.7581
 3211SOL     OW 9948   2.144   2.650   5.115  0.4361  0.3670 -0.1951
 3211SOL    HW1 9949   2.153   2.744   5.128  0.6978  0.2659  0.3771
 3211SOL    HW2 9950   2.090   2.620   5.188  1.8819 -0.1927  0.6937
 3212SOL     OW 9951   1.728   4.014   2.181  0.3024  0.1210 -0.0844
 3212SOL    HW1 9952   1.657   4.070   2.211 -0.4136 -0.9145  0.2066
 3212SOL    HW2 9953   1.716   4.007   2.086 -0.1923 -0.3119  0.0053
 3213SOL     OW 9954   4.493   1.885   1.077 -0.6854  0.0338 -0.1423
 3213SOL    HW1 9955   4.563   1.948   1.095 -0.2969 -0.8068  1.3882
 3213SOL    HW2 9956   4.531   1.823   1.015  0.8628 -1.8693  2.5311
 3214SOL     OW 9957   1.574   0.808   3.848 -0.3595 -0.6415 -0.4166
 3214SOL    HW1 9958   1.494   0.849   3.815 -1.3725 -1.3072  1.0871
 3214SOL    HW2 9959   1.549   0.718   3.866  0.6252 -0.7668  0.4204
 3215SOL     OW 9960   1.806   3.842   1.324 -0.0274 -0.0210 -0.0014
 3215SOL    HW1 9961   1.845   3.928   1.311  0.9426 -0.5727 -0.9282
 3215SOL    HW2 9962   1.726   3.845   1.272 -0.5305  0.6443  0.7839
 3216SOL     OW 9963   3.879   0.861   1.300  0.0567 -0.5267 -0.3395
 3216SOL    HW1 9964   3.929   0.787   1.334 -1.0783 -1.2190 -0.1310
 3216SOL    HW2 9965   3.929   0.890   1.224  1.8636  0.1354  1.0379
 3217SOL     OW 9966   0.041   3.683   4.157  0.4046  0.1165  0.2415
 3217SOL    HW1 9967   0.098   3.626   4.106 -0.3483 -0.4922  0.0612
 3217SOL    HW2 9968   0.101   3.737   4.209  1.1596 -2.2399  1.9950
 3218SOL     OW 9969   3.044   1.109   1.441 -0.4373 -0.0309 -0.2378
 3218SOL    HW1 9970   3.133   1.142   1.430  0.3539 -2.5236 -2.0245
 3218SOL    HW2 9971   3.012   1.095   1.352 -2.9681  1.4960  0.3243
 3219SOL     OW 9972   3.789   3.205   2.301 -0.5826  0.0318 -0.5064
 3219SOL    HW1 9973   3.858   3.271   2.302 -2.8534  2.5810  0.7398
 3219SOL    HW2 9974   3.819   3.139   2.239  2.3890  1.6028 -0.8759
 3220SOL     OW 9975   2.834   5.014   0.040  0.0201 -0.4060 -0.1125
 3220SOL    HW1 9976   2.757   4.979  -0.004 -0.2996  1.0497 -0.7654
 3220SOL    HW2 9977   2.800   5.074   0.105  0.5715  1.2124 -1.2402
 3221SOL     OW 9978   4.040   1.694   4.394 -0.2479 -0.1850  0.1354
 3221SOL    HW1 9979   4.119   1.739   4.425 -0.8987  0.1377  1.4244
 3221SOL    HW2 9980   4.042   1.608   4.438 -0.3730 -0.3625 -0.1993
 3222SOL     OW 9981   2.127   0.796   5.273  0.2667  1.0135  0.6766
 3222SOL    HW1 9982   2.192   0.839   5.328 -0.4031 -0.2154  2.5375
 3222SOL    HW2 9983   2.045   0.802   5.323 -0.8158  1.4752 -1.0520
 3223SOL     OW 9984   1.448   2.920   2.127  0.1886  0.1673 -0.1653
 3223SOL    HW1 9985   1.365   2.944   2.086  0.0355 -0.3189 -0.1539
 3223SOL    HW2 9986   1.447   2.963   2.212 -0.3798 -0.4139  0.1308
 3224SOL     OW 9987   2.550   2.817   0.580  0.5697 -0.2238  0.1846
 3224SOL    HW1 9988   2.490   2.884   0.549 -1.1425 -0.5827  2.4249
 3224SOL    HW2 9989   2.580   2.849   0.666  1.9759 -1.0246  0.0341
 3225SOL     OW 9990   1.323   4.340   3.917  0.2369 -0.3682  0.1898
 3225SOL    HW1 9991   1.306   4.289   3.838 -0.6968  0.5235 -0.2230
 3225SOL    HW2 9992   1.305   4.280   3.990  1.2264 -1.2349 -0.2497
 3226SOL     OW 9993   1.811   2.070   0.424 -0.2580 -0.1040 -0.4282
 3226SOL    HW1 9994   1.724   2.041   0.450  0.3862 -1.0546  0.7632
 3226SOL    HW2 9995   1.810   2.164   0.437 -1.9558  0.3579 -3.0471
 3227SOL     OW 9996   4.131   2.880   0.637  1.0647  0.0195 -0.4466
 3227SOL    HW1 9997   4.041   2.856   0.618  0.1352  2.0588  0.9145
 3227SOL    HW2 9998   4.154   2.944   0.569  1.1757  0.0962 -0.3384
 3228SOL     OW 9999   0.701   1.088   1.340  0.1550  0.2746  0.1537
 3228SOL    HW110000   0.790   1.121   1.347  0.3289 -0.3329  0.9230
 3228SOL    HW210001   0.652   1.135   1.407 -0.2172  0.9450 -0.5753
 3229SOL     OW10002   0.224   4.803   0.840 -0.0285  0.1172 -0.0450
 3229SOL    HW110003   0.213   4.728   0.782 -0.2504  0.9408 -1.1050
 3229SOL    HW210004   0.293   4.855   0.799 -0.9372  1.2538 -0.1654
 3230SOL     OW10005   0.691   1.109   3.469 -0.0283 -0.3058 -0.2447
 3230SOL    HW110006   0.744   1.038   3.504  1.4359  1.2149  0.8043
 3230SOL    HW210007   0.736   1.135   3.389 -1.2296 -1.2840 -1.2768
 3231SOL     OW10008   2.128   1.776   1.036 -0.0933  0.8337  0.0272
 3231SOL    HW110009   2.158   1.703   0.982 -0.0059  1.3774 -0.6824
 3231SOL    HW210010   2.166   1.760   1.122 -1.1173 -0.6307  0.2486
 3232SOL     OW10011   2.022   2.647   3.514  0.1714  0.3239  0.3213
 3232SOL    HW110012   2.052   2.660   3.604  1.2635  1.7742 -0.2093
 3232SOL    HW210013   2.093   2.597   3.473  0.6028  1.3592 -0.2204
 3233SOL     OW10014   1.075   1.806   2.348  0.7943  1.0510  0.3513
 3233SOL    HW110015   1.150   1.748   2.334  0.2624  0.2462  0.7619
 3233SOL    HW210016   1.096   1.853   2.429  0.6680  0.5167  0.6963
 3234SOL     OW10017   5.214   3.513   5.049 -0.2212  0.2383 -0.0794
 3234SOL    HW110018   5.267   3.473   5.118  0.8360 -0.7433 -1.3889
 3234SOL    HW210019   5.140   3.453   5.038  0.5750 -0.6359 -1.0032
 3235SOL     OW10020   4.996   5.205   3.615  0.2529  0.0193 -0.2688
 3235SOL    HW110021   5.020   5.207   3.707 -0.3974  1.1680 -0.1070
 3235SOL    HW210022   5.069   5.246   3.569 -0.2162  1.0906 -0.0655
 3236SOL     OW10023   0.394   2.536   4.871  0.0246  0.2388 -0.3386
 3236SOL    HW110024   0.412   2.498   4.957 -0.1846  0.8576 -0.0160
 3236SOL    HW210025   0.356   2.622   4.890 -3.1956 -0.8917 -0.9220
 3237SOL     OW10026   2.859   4.908   3.570 -0.1860  0.2914 -0.4516
 3237SOL    HW110027   2.939   4.903   3.623 -0.7487  2.3787  0.7452
 3237SOL    HW210028   2.882   4.868   3.487  1.4330 -1.0964  0.6071
 3238SOL     OW10029   3.910   4.323   0.100 -0.1347  0.0777  0.1707
 3238SOL    HW110030   3.909   4.235   0.139 -3.0209  0.5752  1.5114
 3238SOL    HW210031   3.933   4.381   0.172 -2.4552  0.7349  0.4693
 3239SOL     OW10032   2.831   1.484   5.035  0.1108  0.3699 -0.2232
 3239SOL    HW110033   2.826   1.492   5.130 -0.6605  0.3996 -0.2614
 3239SOL    HW210034   2.884   1.405   5.020  0.4474  0.5084  0.2238
 3240SOL     OW10035   3.932   3.315   3.056 -0.6046 -0.3118  0.3312
 3240SOL    HW110036   3.987   3.340   3.130  0.7237 -0.8467 -0.4344
 3240SOL    HW210037   3.896   3.230   3.081  3.5011 -2.8881 -1.2989
 3241SOL     OW10038   1.814   5.508   4.656  1.1232  0.2171 -0.1326
 3241SOL    HW110039   1.860   5.586   4.686  1.9336 -0.6661  1.0356
 3241SOL    HW210040   1.878   5.462   4.602  1.4519 -0.7014  0.9857
 3242SOL     OW10041   0.050   5.047   0.768 -0.4705 -0.4722 -0.1364
 3242SOL    HW110042   0.092   5.068   0.684 -1.0141  0.2962 -0.2350
 3242SOL    HW210043   0.084   4.961   0.792  0.7040 -0.1277 -0.4984
 3243SOL     OW10044   4.905   5.387   0.698 -0.0461 -0.0720  0.0306
 3243SOL    HW110045   4.885   5.295   0.682 -1.9376  0.1599  0.8005
 3243SOL    HW210046   4.995   5.387   0.731 -0.8192 -1.9486  2.4190
 3244SOL     OW10047   0.671   4.777   4.504 -0.0933 -0.0107 -0.4859
 3244SOL    HW110048   0.730   4.838   4.547 -0.4155 -0.4738  0.6716
 3244SOL    HW210049   0.594   4.828   4.482 -1.2600 -0.3661  2.3951
 3245SOL     OW10050   4.376   3.346   3.341 -0.2085 -0.0924  0.0946
 3245SOL    HW110051   4.367   3.344   3.245 -0.7418  1.9425  0.0571
 3245SOL    HW210052   4.385   3.255   3.366  3.1151 -0.5604 -2.1877
 3246SOL     OW10053   2.511   0.265   4.024  0.0426  0.6533 -0.3127
 3246SOL    HW110054   2.523   0.172   4.007  0.7903  0.9431 -1.4391
 3246SOL    HW210055   2.492   0.304   3.939 -0.5640  1.5026  0.1811
 3247SOL     OW10056   5.557   0.566   0.101  0.1241 -0.3082 -0.2534
 3247SOL    HW110057   5.604   0.638   0.059 -0.0219 -0.3129 -0.4250
 3247SOL    HW210058   5.619   0.532   0.166  0.6310 -0.7529 -0.9462
 3248SOL     OW10059   3.151   4.398   4.585  0.3656  0.6688  0.0738
 3248SOL    HW110060   3.229   4.439   4.621  0.3316 -0.4037  1.4509
 3248SOL    HW210061   3.173   4.305   4.580  0.2484  0.6985 -2.4523
 3249SOL     OW10062   1.595   3.588   1.930  0.2345  0.1125 -0.1493
 3249SOL    HW110063   1.683   3.626   1.938  0.5109 -0.6732  0.7980
 3249SOL    HW210064   1.597   3.511   1.988 -0.5268 -0.9137 -1.4256
 3250SOL     OW10065   2.916   0.723   1.504 -0.3835  0.6251 -0.2048
 3250SOL    HW110066   2.954   0.750   1.420 -0.5158  0.8687 -0.1875
 3250SOL    HW210067   2.865   0.799   1.533 -0.5658  0.4403 -0.0392
 3251SOL     OW10068   5.376   0.448   0.645  0.5115 -0.0070 -0.5279
 3251SOL    HW110069   5.353   0.391   0.572  1.9329  0.5453 -1.4329
 3251SOL    HW210070   5.451   0.498   0.614  1.5652 -0.2148  1.5285
 3252SOL     OW10071   5.188   0.553   2.955 -0.2551  0.1138 -0.0066
 3252SOL    HW110072   5.153   0.516   2.874  1.5901  0.8830 -1.2237
 3252SOL    HW210073   5.283   0.553   2.943  0.1712 -0.6714  2.5953
 3253SOL     OW10074   3.896   2.812   3.916  0.4899 -0.2607 -0.4296
 3253SOL    HW110075   3.978   2.807   3.966  0.6427  0.6582 -0.5691
 3253SOL    HW210076   3.924   2.811   3.824  0.3118 -0.4123 -0.4825
 3254SOL     OW10077   4.314   0.615   5.004 -0.1615 -0.3763 -0.5596
 3254SOL    HW110078   4.268   0.532   5.000  0.6891 -0.9045  0.0832
 3254SOL    HW210079   4.272   0.670   4.939 -2.2469 -0.5355  0.5791
 3255SOL     OW10080   3.890   0.776   5.326  0.3470  0.5353 -0.4889
 3255SOL    HW110081   3.896   0.687   5.360 -0.2299  0.1594 -1.3591
 3255SOL    HW210082   3.801   0.804   5.346 -0.0260  0.2841 -1.7043
 3256SOL     OW10083   2.227   2.176   1.754 -0.6120  0.0908  0.0116
 3256SOL    HW110084   2.275   2.102   1.792 -0.0412  0.6676  0.4428
 3256SOL    HW210085   2.157   2.193   1.817 -1.7155 -1.0586 -0.8537
 3257SOL     OW10086   1.426   0.705   0.585  0.1610  0.7363 -0.5553
 3257SOL    HW110087   1.466   0.666   0.507 -0.0658 -0.7576  0.0442
 3257SOL    HW210088   1.332   0.696   0.570  0.0960 -1.5271  0.7743
 3258SOL     OW10089   3.079   5.541   2.714 -0.0846  0.1980  0.7803
 3258SOL    HW110090   3.007   5.480   2.727  0.2618 -0.6551 -1.1057
 3258SOL    HW210091   3.153   5.487   2.685  1.1152  1.1462  1.9040
 3259SOL     OW10092   2.802   4.455   0.833  0.5079  0.1007 -0.2673
 3259SOL    HW110093   2.805   4.395   0.908  1.6210  0.5929  0.1040
 3259SOL    HW210094   2.731   4.516   0.855 -0.2514 -0.7213 -0.3869
 3260SOL     OW10095   4.065   2.097   4.553 -0.2543  0.3148 -0.0121
 3260SOL    HW110096   4.014   2.146   4.617 -0.2123  0.8286 -0.3650
 3260SOL    HW210097   4.077   2.011   4.592 -1.0040  0.3327  0.2699
 3261SOL     OW10098   1.319   1.186   5.247  0.0657  0.1020 -0.1595
 3261SOL    HW110099   1.394   1.194   5.307 -0.8510  1.0715  0.8984
 3261SOL    HW210100   1.287   1.097   5.262  1.8701 -0.9079 -1.7441
 3262SOL     OW10101   2.150   0.229   2.023 -0.3345 -0.2325  0.8612
 3262SOL    HW110102   2.152   0.316   2.062  0.7792  0.3301 -0.3543
 3262SOL    HW210103   2.232   0.188   2.050 -0.9011 -0.9794  1.5227
 3263SOL     OW10104   1.391   4.477   0.093  0.1709 -0.2394  0.3911
 3263SOL    HW110105   1.405   4.482   0.187 -0.5784 -2.3616  0.6778
 3263SOL    HW210106   1.445   4.403   0.064  0.4077  0.3915 -0.8592
 3264SOL     OW10107   1.860   4.890   0.901  0.3762  0.2079 -0.2965
 3264SOL    HW110108   1.918   4.936   0.840  0.1511 -1.4329 -1.8245
 3264SOL    HW210109   1.781   4.943   0.903  0.9391  1.0751 -0.2383
 3265SOL     OW10110   0.383   2.509   2.888 -0.3917  0.2332  0.0887
 3265SOL    HW110111   0.403   2.596   2.853 -0.3368 -0.3111 -1.2885
 3265SOL    HW210112   0.288   2.507   2.895 -0.3707  0.5419  0.5305
 3266SOL     OW10113   1.826   3.101   1.277  0.1993 -0.3001 -0.4295
 3266SOL    HW110114   1.781   3.177   1.314 -1.8407 -2.5829  2.2443
 3266SOL    HW210115   1.919   3.124   1.280 -0.2476  1.5952  1.5891
 3267SOL     OW10116   1.600   5.152   3.355 -0.0141  0.8902 -0.1440
 3267SOL    HW110117   1.513   5.113   3.351  0.5940 -0.5658  0.1850
 3267SOL    HW210118   1.584   5.247   3.356 -1.5498  0.6626 -0.7385
 3268SOL     OW10119   1.337   2.951   4.587 -0.0629  0.1132 -0.1875
 3268SOL    HW110120   1.370   2.971   4.500  0.8576  0.3152  0.1857
 3268SOL    HW210121   1.389   3.007   4.646  0.0881 -0.7792  0.5657
 3269SOL     OW10122   5.253   1.188   5.487  0.2040 -0.3186  0.1400
 3269SOL    HW110123   5.189   1.248   5.448 -0.6103 -0.7556  0.7703
 3269SOL    HW210124   5.262   1.117   5.424  0.4533 -0.0112 -0.1756
 3270SOL     OW10125   4.086   0.815   0.283 -0.3127 -0.3861  0.1107
 3270SOL    HW110126   4.032   0.751   0.236 -1.8175  0.9516 -0.0651
 3270SOL    HW210127   4.023   0.881   0.314  0.8824 -0.1567  2.2628
 3271SOL     OW10128   1.621   3.059   5.523 -0.0839 -0.5666 -0.3818
 3271SOL    HW110129   1.695   3.026   5.472  0.9258  1.2962 -0.2000
 3271SOL    HW210130   1.553   3.075   5.458 -0.5033 -2.5949 -0.5138
 3272SOL     OW10131   0.509   0.982   2.872 -0.4140 -0.4439 -0.0095
 3272SOL    HW110132   0.426   1.018   2.903 -0.9433 -1.2268 -0.4727
 3272SOL    HW210133   0.506   0.890   2.898  0.3561 -0.4599  0.0524
 3273SOL     OW10134   1.961   1.052   1.737  0.5323  0.0781 -0.2550
 3273SOL    HW110135   1.955   1.123   1.673 -0.8568  0.7066  0.5283
 3273SOL    HW210136   1.999   0.979   1.688  2.1449  1.3781 -1.0391
 3274SOL     OW10137   5.225   0.866   1.536  0.3523  0.2087 -0.4162
 3274SOL    HW110138   5.186   0.875   1.449  0.0068 -0.6809 -0.3724
 3274SOL    HW210139   5.318   0.851   1.519  0.3250  0.2743 -0.6266
 3275SOL     OW10140   3.360   1.860   0.331 -0.0791  0.4583  0.0709
 3275SOL    HW110141   3.312   1.875   0.250 -0.8778 -1.7105  0.0738
 3275SOL    HW210142   3.323   1.923   0.393 -1.4173  0.2766 -0.5173
 3276SOL     OW10143   0.506   3.727   4.747 -0.3333  0.3817  0.5273
 3276SOL    HW110144   0.540   3.743   4.835 -2.3257  0.5095  1.3442
 3276SOL    HW210145   0.470   3.638   4.752 -2.6904  1.2743  0.6722
 3277SOL     OW10146   2.663   2.312   1.125 -0.5857  0.5971 -0.4255
 3277SOL    HW110147   2.589   2.308   1.186 -0.2898 -1.4226 -0.1232
 3277SOL    HW210148   2.725   2.372   1.167 -0.8020  0.0000  0.8040
 3278SOL     OW10149   3.781   1.320   0.091 -0.4276 -0.7996  0.4656
 3278SOL    HW110150   3.860   1.280   0.127 -0.7242 -1.5421  0.2932
 3278SOL    HW210151   3.750   1.377   0.162  1.8429  1.8269 -0.4517
 3279SOL     OW10152   3.758   5.499   2.719  0.0006  0.5179  0.1621
 3279SOL    HW110153   3.670   5.466   2.739 -0.2059  1.0662  0.1541
 3279SOL    HW210154   3.745   5.588   2.686  0.6779  1.3309  1.9446
 3280SOL     OW10155   0.951   0.929   1.703  0.2157  0.2654 -0.1800
 3280SOL    HW110156   0.858   0.909   1.690 -0.0744  1.8259 -0.7661
 3280SOL    HW210157   0.968   1.002   1.643  1.6126  0.5467  0.5273
 3281SOL     OW10158   1.277   0.090   4.052  0.5662 -0.0653  0.2160
 3281SOL    HW110159   1.326   0.165   4.087 -1.0731 -0.0983  2.8556
 3281SOL    HW210160   1.254   0.038   4.129 -1.5377 -1.3213 -1.1418
 3282SOL     OW10161   1.544   0.574   0.819 -0.3771  0.6388  0.0481
 3282SOL    HW110162   1.459   0.534   0.799 -0.5699  1.0321  0.0679
 3282SOL    HW210163   1.560   0.634   0.746  0.3393 -0.1297 -0.4482
 3283SOL     OW10164   2.210   3.732   2.105  0.4454 -0.6561 -0.0086
 3283SOL    HW110165   2.191   3.757   2.014  0.6708 -1.4366 -0.2774
 3283SOL    HW210166   2.305   3.722   2.107  0.8954  2.6337  1.1750
 3284SOL     OW10167   4.825   2.675   1.897 -0.0472  0.0252 -0.1828
 3284SOL    HW110168   4.875   2.594   1.888 -0.9255 -0.4191 -1.1837
 3284SOL    HW210169   4.869   2.722   1.968  0.1531 -1.5461  0.7706
 3285SOL     OW10170   0.395   4.311   1.375 -0.1763  0.4994 -0.2040
 3285SOL    HW110171   0.429   4.382   1.429  0.8867  0.0697 -0.2813
 3285SOL    HW210172   0.316   4.282   1.420 -1.9625  3.1998 -1.3432
 3286SOL     OW10173   2.568   4.836   4.785  0.6573 -0.0178 -0.3201
 3286SOL    HW110174   2.649   4.886   4.801  2.0748 -2.6293  1.3273
 3286SOL    HW210175   2.507   4.867   4.853  0.4453  1.4833 -1.1468
 3287SOL     OW10176   2.044   3.926   4.315 -0.0957  0.1231  0.4696
 3287SOL    HW110177   2.111   3.989   4.287  1.3929 -1.7940 -0.6570
 3287SOL    HW210178   1.961   3.971   4.302  0.9118  2.0904  0.4634
 3288SOL     OW10179   5.420   1.747   3.484  0.4683 -0.3992  0.4675
 3288SOL    HW110180   5.485   1.818   3.484  0.6699 -0.5823  0.9535
 3288SOL    HW210181   5.393   1.740   3.392  1.1031 -0.2879  0.2662
 3289SOL     OW10182   2.655   5.545   2.594 -0.2404 -0.3892 -0.1548
 3289SOL    HW110183   2.646   5.607   2.522 -1.7784 -0.1967  0.1637
 3289SOL    HW210184   2.565   5.521   2.617  0.2683 -1.7966  0.5482
 3290SOL     OW10185   2.088   1.068   3.857  0.2022  0.3306  0.3712
 3290SOL    HW110186   2.021   1.055   3.924  1.1652 -2.0245  0.9837
 3290SOL    HW210187   2.049   1.036   3.776 -0.6636  2.4086 -0.0974
 3291SOL     OW10188   0.980   1.331   3.382  0.0030  0.2696  0.5034
 3291SOL    HW110189   0.986   1.405   3.322  1.3921  0.0440  0.3307
 3291SOL    HW210190   1.021   1.259   3.335 -2.0715 -0.8712  0.3247
 3292SOL     OW10191   3.514   4.489   0.397  0.0397 -0.1146  0.1273
 3292SOL    HW110192   3.597   4.532   0.379  0.4335  0.0203  2.0271
 3292SOL    HW210193   3.483   4.530   0.478 -1.0382 -1.3379  0.3753
 3293SOL     OW10194   1.493   2.857   1.592 -0.0298 -0.2176  0.2804
 3293SOL    HW110195   1.543   2.835   1.671 -0.3603 -1.3807  0.1773
 3293SOL    HW210196   1.526   2.798   1.525  0.5647  1.0709 -0.5920
 3294SOL     OW10197   1.019   5.256   0.196  0.2981  0.1727  0.4184
 3294SOL    HW110198   1.053   5.331   0.146 -1.5437  0.1688 -0.9499
 3294SOL    HW210199   1.017   5.287   0.286 -0.7970  1.9592 -0.1599
 3295SOL     OW10200   1.365   3.641   2.908 -0.0340  0.0127  0.4458
 3295SOL    HW110201   1.324   3.695   2.975  1.2055  1.3281  0.1922
 3295SOL    HW210202   1.455   3.628   2.938 -0.0829 -1.2701  0.1032
 3296SOL     OW10203   0.155   0.109   1.511  0.8003 -0.0401  0.7808
 3296SOL    HW110204   0.175   0.020   1.480  1.0420  0.5452 -0.8665
 3296SOL    HW210205   0.238   0.143   1.544  0.6178 -0.5584  1.7969
 3297SOL     OW10206   0.055   0.684   0.434 -0.4309 -0.3542  0.5002
 3297SOL    HW110207   0.130   0.662   0.489 -0.5141  0.4876  0.9688
 3297SOL    HW210208  -0.021   0.677   0.492 -0.7721 -1.5707 -0.0676
 3298SOL     OW10209   2.814   4.984   4.858  0.0248  0.1217 -0.1864
 3298SOL    HW110210   2.856   4.905   4.892 -0.3957 -0.5924 -1.2964
 3298SOL    HW210211   2.799   5.038   4.936  0.3533 -0.8694  0.5851
 3299SOL     OW10212   1.891   1.978   2.383 -0.1062  0.3046 -0.0895
 3299SOL    HW110213   1.871   1.893   2.344  0.3869 -0.8327  1.9566
 3299SOL    HW210214   1.807   2.010   2.416 -0.0297 -0.2394  0.6593
 3300SOL     OW10215   3.552   2.143   0.954 -0.1724  0.0084 -0.8062
 3300SOL    HW110216   3.458   2.124   0.946 -0.1856 -0.7306  0.7850
 3300SOL    HW210217   3.591   2.059   0.979  0.8799  0.3823 -1.1367
 3301SOL     OW10218   1.043   4.699   2.697 -0.6297 -0.0619  0.0328
 3301SOL    HW110219   0.998   4.628   2.742 -1.9487 -0.3899 -1.7202
 3301SOL    HW210220   1.131   4.664   2.679 -1.6382 -1.7687 -1.8877
 3302SOL     OW10221   3.921   2.166   4.770 -0.3155 -0.2497 -0.3100
 3302SOL    HW110222   3.963   2.252   4.769 -0.6180 -0.0708 -2.2016
 3302SOL    HW210223   3.832   2.184   4.800 -0.3801  0.1239 -0.7050
 3303SOL     OW10224   1.260   4.766   3.451  0.2453 -0.6141  0.4818
 3303SOL    HW110225   1.237   4.681   3.413 -0.5283  0.3146 -1.2963
 3303SOL    HW210226   1.336   4.749   3.506  1.0374 -2.2042 -1.0260
 3304SOL     OW10227   0.732   5.206   1.957  0.4764 -0.7098  0.0729
 3304SOL    HW110228   0.666   5.254   1.907  2.1079  0.2370 -1.2801
 3304SOL    HW210229   0.793   5.173   1.891  1.7074 -1.0010  1.3061
 3305SOL     OW10230   1.723   4.565   1.336  0.0456 -0.3253 -0.6310
 3305SOL    HW110231   1.742   4.646   1.289  1.5245 -0.8390 -1.0022
 3305SOL    HW210232   1.706   4.501   1.266 -4.3249  0.2462 -0.3569
 3306SOL     OW10233   1.511   3.831   2.437  0.4060  0.0977 -0.0484
 3306SOL    HW110234   1.456   3.756   2.459  1.4322  0.2163  3.6229
 3306SOL    HW210235   1.581   3.795   2.384  0.7234 -1.5679  1.4047
 3307SOL     OW10236   0.291   4.283   4.692  0.2636 -0.1970  0.4000
 3307SOL    HW110237   0.378   4.248   4.672  0.1697 -0.6208  0.7205
 3307SOL    HW210238   0.266   4.241   4.774  0.5000  1.2703  1.2575
 3308SOL     OW10239   3.311   3.678   4.365  0.7996  0.1260  0.1706
 3308SOL    HW110240   3.274   3.739   4.429  1.4905  1.7951 -0.9555
 3308SOL    HW210241   3.365   3.733   4.308 -0.5441 -1.1145 -2.4569
 3309SOL     OW10242   0.284   2.734   2.186  0.9609  0.0438 -0.3855
 3309SOL    HW110243   0.241   2.666   2.134  2.8490 -0.1090 -1.8883
 3309SOL    HW210244   0.239   2.815   2.164  2.0079  0.0721 -2.7817
 3310SOL     OW10245   3.910   4.856   4.112  0.0001  0.1616 -0.3359
 3310SOL    HW110246   3.955   4.805   4.179 -1.3165 -1.3338 -0.5280
 3310SOL    HW210247   3.954   4.833   4.031  0.3229  0.4493 -0.2454
 3311SOL     OW10248   4.327   1.471   2.289  0.0026 -0.0517 -0.3339
 3311SOL    HW110249   4.236   1.500   2.291  0.1259  0.4571 -1.2649
 3311SOL    HW210250   4.370   1.524   2.357 -0.1366  0.6998 -0.8133
 3312SOL     OW10251   3.204   1.211   4.232  0.1642  0.0105 -0.1225
 3312SOL    HW110252   3.160   1.290   4.265  0.0689 -0.3747  0.6847
 3312SOL    HW210253   3.202   1.150   4.306  3.5459  0.5547  0.6216
 3313SOL     OW10254   0.576   0.910   0.827 -0.0714  0.3809  0.5196
 3313SOL    HW110255   0.622   0.946   0.903 -0.3685  1.3286  0.2708
 3313SOL    HW210256   0.623   0.946   0.752 -0.7647  0.7560  0.2640
 3314SOL     OW10257   0.200   0.136   3.363 -0.3099 -0.0181 -0.2031
 3314SOL    HW110258   0.278   0.085   3.381  0.0135  1.2541  2.4479
 3314SOL    HW210259   0.145   0.078   3.311  1.3693 -1.8410 -0.0541
 3315SOL     OW10260   4.954   4.789   1.237  0.2610  0.5860 -0.6508
 3315SOL    HW110261   4.962   4.698   1.264  0.3333 -0.0031 -2.4893
 3315SOL    HW210262   4.860   4.807   1.241  0.3379  0.7568  0.6456
 3316SOL     OW10263   2.960   0.447   3.477 -0.5186 -0.4661 -0.2908
 3316SOL    HW110264   2.969   0.368   3.423  1.4145  0.8166 -1.9738
 3316SOL    HW210265   3.036   0.445   3.536 -0.0860  0.4450 -0.8021
 3317SOL     OW10266   4.039   3.873   4.609 -0.1947  0.0206 -0.1744
 3317SOL    HW110267   4.079   3.805   4.553 -0.1668 -0.5016  0.4724
 3317SOL    HW210268   3.981   3.824   4.668 -0.5520  0.6154 -0.0259
 3318SOL     OW10269   3.114   1.128   5.277  0.2476  0.0021  0.2315
 3318SOL    HW110270   3.151   1.076   5.349 -2.1176  0.2192  1.6856
 3318SOL    HW210271   3.178   1.198   5.263  0.5098  0.2868  2.5492
 3319SOL     OW10272   1.702   4.345   2.807  1.1250 -0.2025 -0.0906
 3319SOL    HW110273   1.768   4.291   2.764  1.0224 -0.3047 -0.1202
 3319SOL    HW210274   1.633   4.357   2.741  2.2892  2.1189 -1.0227
 3320SOL     OW10275   4.224   1.313   4.297 -0.4538  0.0842 -0.0212
 3320SOL    HW110276   4.197   1.223   4.312  1.6094 -0.8329 -1.3336
 3320SOL    HW210277   4.197   1.332   4.207  0.1164  0.3574 -0.1423
 3321SOL     OW10278   3.681   2.255   0.192  0.4613 -0.1544  0.1797
 3321SOL    HW110279   3.755   2.315   0.184 -0.0863  0.5904  0.6607
 3321SOL    HW210280   3.650   2.266   0.281  0.4696 -1.3051  0.3456
 3322SOL     OW10281   0.058   2.292   2.928  0.5162  0.2932  0.4134
 3322SOL    HW110282   0.098   2.306   3.014 -1.1687  0.2814  1.2332
 3322SOL    HW210283  -0.028   2.333   2.934 -0.5428 -1.6430 -0.5158
 3323SOL     OW10284   4.230   1.970   0.961 -0.3678  0.4726 -0.3102
 3323SOL    HW110285   4.213   1.889   0.913 -1.3978 -1.4919  3.0770
 3323SOL    HW210286   4.288   1.945   1.033 -1.2838  2.5517  1.2685
 3324SOL     OW10287   1.229   0.080   1.583 -0.7005 -0.0711  0.0579
 3324SOL    HW110288   1.150   0.037   1.616 -1.3917  1.2027  0.1292
 3324SOL    HW210289   1.297   0.013   1.588 -1.8293 -1.2678 -0.2394
 3325SOL     OW10290   0.931   4.215   1.629  0.3822 -0.1199 -0.2049
 3325SOL    HW110291   0.988   4.139   1.620  1.4578  0.7917 -1.3399
 3325SOL    HW210292   0.976   4.272   1.692  2.4540  2.0012 -3.2861
 3326SOL     OW10293   4.195   4.432   3.669 -0.1601 -0.6849 -0.8251
 3326SOL    HW110294   4.286   4.450   3.646  0.0138  0.0420  0.3407
 3326SOL    HW210295   4.176   4.347   3.629  1.4956 -1.5596  0.1441
 3327SOL     OW10296   1.710   4.503   0.325  0.8104 -0.2472 -0.1585
 3327SOL    HW110297   1.690   4.416   0.290  3.1450 -0.8092 -0.2338
 3327SOL    HW210298   1.747   4.551   0.250  0.8436  0.3406  0.2268
 3328SOL     OW10299   2.550   4.942   2.199  0.2281  0.6898  0.1739
 3328SOL    HW110300   2.479   4.915   2.258  1.5939 -1.5552  0.9216
 3328SOL    HW210301   2.591   5.016   2.243 -0.8993  1.2329  0.3249
 3329SOL     OW10302   1.291   2.739   1.239 -0.2160  0.8911 -0.5584
 3329SOL    HW110303   1.316   2.809   1.180  3.3204  1.4771  1.3722
 3329SOL    HW210304   1.216   2.773   1.288  1.2600  3.3411  0.1566
 3330SOL     OW10305   4.701   0.377   3.828 -0.3645  0.2343 -0.4484
 3330SOL    HW110306   4.642   0.328   3.772 -2.3374 -0.6417  2.1673
 3330SOL    HW210307   4.788   0.362   3.791 -1.4088 -1.2103 -2.5218
 3331SOL     OW10308   1.259   2.856   0.851  0.2545 -0.2232 -0.0774
 3331SOL    HW110309   1.263   2.765   0.821 -1.5075 -0.7005  1.0056
 3331SOL    HW210310   1.344   2.893   0.826  1.1391 -2.2438 -0.2610
 3332SOL     OW10311   3.357   2.609   2.480 -0.0598  0.3075 -0.0715
 3332SOL    HW110312   3.363   2.636   2.389 -0.8508 -3.4126 -1.4226
 3332SOL    HW210313   3.263   2.601   2.497  0.1054 -0.4432  0.5644
 3333SOL     OW10314   4.570   2.429   2.981  0.7178 -0.2008  0.0906
 3333SOL    HW110315   4.651   2.447   3.028  1.2526 -1.2587 -0.3717
 3333SOL    HW210316   4.567   2.333   2.975 -1.5231 -0.3137  1.7175
 3334SOL     OW10317   1.614   3.917   0.054  0.1131  0.2175  0.1901
 3334SOL    HW110318   1.619   3.847  -0.012  0.6708 -1.1332  1.6156
 3334SOL    HW210319   1.700   3.959   0.050 -0.0892  0.5940 -0.3961
 3335SOL     OW10320   0.536   4.333   4.925 -0.1015  0.4543 -0.1575
 3335SOL    HW110321   0.612   4.367   4.973  0.9742 -0.8567 -0.8318
 3335SOL    HW210322   0.460   4.373   4.967  0.7991 -0.3266  2.3603
 3336SOL     OW10323   5.151   0.739   2.457  0.4254 -0.1966 -0.3953
 3336SOL    HW110324   5.165   0.647   2.480 -0.1724  0.0595  1.1107
 3336SOL    HW210325   5.232   0.783   2.484  0.9193 -0.3190 -1.5772
 3337SOL     OW10326   5.405   1.015   4.572 -0.2883  0.0296 -0.8324
 3337SOL    HW110327   5.411   0.989   4.480 -2.2920 -1.1359 -0.6758
 3337SOL    HW210328   5.416   0.933   4.621  2.5905  0.8684  0.1128
 3338SOL     OW10329   3.371   5.537   3.709 -0.0286 -0.0313  0.1582
 3338SOL    HW110330   3.325   5.464   3.669  2.1133 -0.7899 -1.0428
 3338SOL    HW210331   3.408   5.501   3.790  1.0154 -0.3377 -0.4272
 3339SOL     OW10332   0.185   3.042   4.540  0.5199  0.7703  0.3219
 3339SOL    HW110333   0.133   3.064   4.617  0.9748  1.3565  0.4738
 3339SOL    HW210334   0.276   3.039   4.572  0.6997  0.8975 -0.1600
 3340SOL     OW10335   0.378   0.442   4.682  0.2968 -0.4208  0.2445
 3340SOL    HW110336   0.455   0.408   4.728  1.1114  2.8971  1.6532
 3340SOL    HW210337   0.414   0.510   4.624 -1.2595 -1.3400 -1.9448
 3341SOL     OW10338   3.459   1.545   3.815 -0.5469  0.6309 -0.3019
 3341SOL    HW110339   3.385   1.504   3.861  0.7174  0.4396  1.6937
 3341SOL    HW210340   3.485   1.480   3.749 -1.2150  0.0559 -0.0212
 3342SOL     OW10341   4.137   1.463   1.490  0.0625 -0.3005  0.4990
 3342SOL    HW110342   4.058   1.411   1.505 -2.9667  3.3591 -1.0633
 3342SOL    HW210343   4.140   1.476   1.396  0.4676  2.3687  0.7746
 3343SOL     OW10344   5.335   3.619   1.050 -0.7044 -0.2143  0.1454
 3343SOL    HW110345   5.251   3.611   1.005 -0.2726 -1.1821 -0.5334
 3343SOL    HW210346   5.389   3.550   1.012 -0.0922 -0.6226  1.6733
 3344SOL     OW10347   3.296   0.358   2.446  0.6267  0.1601 -0.1294
 3344SOL    HW110348   3.324   0.417   2.516  0.2816 -0.9963  1.0246
 3344SOL    HW210349   3.378   0.321   2.412  0.7341 -0.4049  0.7070
 3345SOL     OW10350   0.550   4.579   5.323  0.6206 -0.4331 -0.3553
 3345SOL    HW110351   0.525   4.581   5.230  0.8124 -0.4632 -0.4079
 3345SOL    HW210352   0.618   4.645   5.331 -0.3972  0.6085  0.0615
 3346SOL     OW10353   3.874   4.407   3.078 -0.3606 -0.3724  0.0119
 3346SOL    HW110354   3.954   4.400   3.130  0.5081 -0.1949 -1.2741
 3346SOL    HW210355   3.837   4.318   3.079  0.6492 -0.8168 -0.6151
 3347SOL     OW10356   5.540   2.027   4.794  0.0862 -0.3371 -0.5729
 3347SOL    HW110357   5.547   2.044   4.699 -1.6577 -1.0541 -0.8603
 3347SOL    HW210358   5.497   2.105   4.829  1.7593  0.4366 -0.1514
 3348SOL     OW10359   1.373   1.751   0.681 -0.3400 -0.2077  1.0040
 3348SOL    HW110360   1.345   1.806   0.608  0.5798  2.3359  2.4681
 3348SOL    HW210361   1.452   1.708   0.649 -0.5205  0.0677  0.1656
 3349SOL     OW10362   0.948   3.178   3.863 -0.5792 -0.0593  0.1568
 3349SOL    HW110363   0.960   3.095   3.817 -1.4051 -0.2404  0.2656
 3349SOL    HW210364   0.903   3.234   3.801  0.0313  0.3339  0.0627
 3350SOL     OW10365   3.063   1.153   0.447 -0.1272  0.4176  0.1547
 3350SOL    HW110366   3.057   1.244   0.477 -0.3492  0.2937  0.4884
 3350SOL    HW210367   3.000   1.105   0.501  0.2215  0.0071  0.2044
 3351SOL     OW10368   0.867   3.787   4.039  0.7274 -0.6180  0.2880
 3351SOL    HW110369   0.943   3.765   3.986  0.8157  0.1687  0.0648
 3351SOL    HW210370   0.891   3.870   4.081 -0.6418  0.5583 -1.1235
 3352SOL     OW10371   0.286   1.005   4.431 -0.0712  0.3839 -0.3983
 3352SOL    HW110372   0.262   1.040   4.516 -0.5733 -0.9740  0.0372
 3352SOL    HW210373   0.382   1.010   4.429 -0.1014  1.2369 -0.1353
 3353SOL     OW10374   0.052   2.234   1.177 -0.7495 -0.4049 -1.1582
 3353SOL    HW110375  -0.029   2.219   1.128 -1.7588 -2.3355  0.9310
 3353SOL    HW210376   0.109   2.161   1.152 -0.4681 -0.2330 -1.0250
 3354SOL     OW10377   3.849   3.639   1.305  0.5000 -0.3514 -0.0872
 3354SOL    HW110378   3.890   3.614   1.222 -0.7508 -2.7384 -0.0851
 3354SOL    HW210379   3.778   3.698   1.280  0.3580 -0.7675 -0.6859
 3355SOL     OW10380   4.628   4.044   3.620 -0.2197 -0.2491  0.7296
 3355SOL    HW110381   4.676   3.975   3.573 -0.5312  0.1713 -0.2370
 3355SOL    HW210382   4.549   4.058   3.568 -0.9474 -0.2745  1.7959
 3356SOL     OW10383   3.472   1.585   3.461  0.1860 -0.4601  0.7003
 3356SOL    HW110384   3.483   1.608   3.368  0.5961 -0.3060  0.7882
 3356SOL    HW210385   3.489   1.491   3.464  2.1960 -0.1293  0.9383
 3357SOL     OW10386   3.045   4.459   2.004 -0.3209  0.6962  0.0832
 3357SOL    HW110387   2.955   4.469   2.035 -0.3346  2.3902 -0.4186
 3357SOL    HW210388   3.089   4.539   2.032  1.0744 -0.1473  0.4080
 3358SOL     OW10389   0.524   3.575   2.104 -0.0596  0.0859  0.0540
 3358SOL    HW110390   0.500   3.638   2.173 -0.4064  1.6010 -1.3823
 3358SOL    HW210391   0.595   3.618   2.057  1.7342 -1.8988  0.7646
 3359SOL     OW10392   3.279   0.590   3.560 -0.1675 -0.2449  0.2416
 3359SOL    HW110393   3.254   0.617   3.648  1.6004 -1.8756  1.3043
 3359SOL    HW210394   3.301   0.672   3.515  0.1923  0.5064  1.7371
 3360SOL     OW10395   4.210   3.893   3.778 -0.2640  0.0190 -0.1822
 3360SOL    HW110396   4.285   3.848   3.741 -0.0454 -0.6941  1.0977
 3360SOL    HW210397   4.138   3.830   3.771 -0.3839  0.1375 -0.0189
 3361SOL     OW10398   2.303   1.737   3.982  0.1712 -0.0001 -0.2314
 3361SOL    HW110399   2.352   1.663   4.018 -0.1239 -0.0124  0.1508
 3361SOL    HW210400   2.303   1.722   3.888  0.2187 -0.4258 -0.1663
 3362SOL     OW10401   0.414   1.007   1.737  0.6144 -0.2594 -0.2972
 3362SOL    HW110402   0.323   1.031   1.748  0.9321  0.6101  0.5768
 3362SOL    HW210403   0.441   0.976   1.824  1.3491  0.2341 -0.3407
 3363SOL     OW10404   5.507   4.079   1.392  0.8672  0.2314  0.3816
 3363SOL    HW110405   5.533   4.087   1.300  1.5089  0.3087  0.5674
 3363SOL    HW210406   5.436   4.015   1.391 -0.7273  1.9433 -0.4503
 3364SOL     OW10407   4.521   2.767   4.773  0.4428 -0.1863 -0.0011
 3364SOL    HW110408   4.587   2.757   4.841  1.1275  3.0686 -0.0267
 3364SOL    HW210409   4.564   2.735   4.693  0.9415 -0.6259  0.4357
 3365SOL     OW10410   0.535   3.746   4.156 -0.1244  0.2458 -0.3988
 3365SOL    HW110411   0.494   3.830   4.136  0.2767  0.5404 -0.0147
 3365SOL    HW210412   0.475   3.704   4.217  0.2114  0.7463  0.2885
 3366SOL     OW10413   2.122   0.941   3.605 -0.5163  0.6661 -0.1640
 3366SOL    HW110414   2.097   0.859   3.562 -1.9694  1.1839 -0.3645
 3366SOL    HW210415   2.210   0.925   3.638 -1.4072 -1.6024  1.3308
 3367SOL     OW10416   4.249   1.822   4.480 -0.2272 -0.3691  0.0431
 3367SOL    HW110417   4.333   1.780   4.499  0.5177  1.3896  0.9555
 3367SOL    HW210418   4.220   1.856   4.565 -0.9057  0.6946 -0.5869
 3368SOL     OW10419   2.260   1.595   5.557  0.0993 -0.6413 -0.3428
 3368SOL    HW110420   2.205   1.558   5.488  0.1453 -1.1143 -0.1290
 3368SOL    HW210421   2.297   1.519   5.601 -0.8116 -0.3912  0.9310
 3369SOL     OW10422   4.314   0.432   1.070 -0.0715  0.5813  0.0211
 3369SOL    HW110423   4.339   0.456   0.981 -1.8764  1.6037 -0.2583
 3369SOL    HW210424   4.326   0.513   1.121 -2.5576  1.1247 -0.1239
 3370SOL     OW10425   0.311   2.224   3.730  0.2007 -0.7287 -0.2746
 3370SOL    HW110426   0.295   2.171   3.807  0.5571 -0.0507  0.2777
 3370SOL    HW210427   0.385   2.182   3.686 -0.0193 -1.1284 -0.2700
 3371SOL     OW10428   4.475   1.795   4.737  0.2463  0.3294 -0.0662
 3371SOL    HW110429   4.412   1.778   4.808 -0.0104  1.5018 -0.0040
 3371SOL    HW210430   4.512   1.708   4.717  0.7107  0.0396  1.8536
 3372SOL     OW10431   4.240   3.892   1.981  0.3703 -0.7650  0.3978
 3372SOL    HW110432   4.144   3.894   1.978  0.4023  0.3469 -0.4123
 3372SOL    HW210433   4.265   3.838   1.907  0.3966  0.6944 -0.6988
 3373SOL     OW10434   3.428   0.253   0.393  0.6364  0.2899  0.1002
 3373SOL    HW110435   3.344   0.219   0.361  0.0559  1.2420  0.5528
 3373SOL    HW210436   3.421   0.247   0.489  1.5386 -0.6600  0.1176
 3374SOL     OW10437   3.223   4.202   5.143  0.6294 -0.2190 -0.2712
 3374SOL    HW110438   3.237   4.108   5.130 -1.1769 -0.3260 -1.9592
 3374SOL    HW210439   3.174   4.207   5.225  3.0568 -0.4628  1.2837
 3375SOL     OW10440   0.349   4.610   3.547 -0.6006  0.1185 -0.1315
 3375SOL    HW110441   0.276   4.671   3.534 -0.9821 -0.1532  0.6865
 3375SOL    HW210442   0.309   4.534   3.589 -0.4119 -1.3263 -2.3675
 3376SOL     OW10443   4.550   2.738   0.852 -0.0898 -0.1049  0.3411
 3376SOL    HW110444   4.483   2.704   0.792 -0.7068 -1.1872  1.5874
 3376SOL    HW210445   4.514   2.821   0.883 -1.2783 -1.0459  1.6045
 3377SOL     OW10446   1.004   3.467   4.285  0.4001  0.4297  0.1639
 3377SOL    HW110447   0.926   3.523   4.283 -1.3894 -1.6573  3.1636
 3377SOL    HW210448   1.065   3.514   4.341  0.0516  0.6854  0.3347
 3378SOL     OW10449   2.362   3.967   2.846  0.0731  0.3854  0.6130
 3378SOL    HW110450   2.359   3.927   2.933 -0.6829  1.1224  0.9438
 3378SOL    HW210451   2.270   3.988   2.827  0.2993  0.7081 -0.1365
 3379SOL     OW10452   5.284   5.283   3.603  1.0409  0.2944 -0.7238
 3379SOL    HW110453   5.280   5.329   3.687 -1.0384 -0.4166 -0.3590
 3379SOL    HW210454   5.333   5.203   3.622  0.5266  0.1056 -0.1386
 3380SOL     OW10455   2.246   4.916   1.709  0.2336  0.1750 -0.0651
 3380SOL    HW110456   2.181   4.955   1.649  0.4418 -0.2732 -0.5954
 3380SOL    HW210457   2.312   4.984   1.720  1.3999 -0.5044 -2.2251
 3381SOL     OW10458   3.852   2.333   1.807 -0.1234 -0.1908  0.5348
 3381SOL    HW110459   3.804   2.319   1.725 -1.2669  1.5269  0.8611
 3381SOL    HW210460   3.928   2.385   1.782 -1.7041  2.4328  0.7883
 3382SOL     OW10461   5.227   2.549   3.481  0.0595  0.4614  0.0515
 3382SOL    HW110462   5.148   2.521   3.527  0.5050 -1.2969 -0.1909
 3382SOL    HW210463   5.206   2.539   3.389 -0.1122  1.9820 -0.1033
 3383SOL     OW10464   1.040   2.355   4.311 -0.4242  0.0498  0.5702
 3383SOL    HW110465   1.077   2.442   4.299  1.2768 -0.3653  2.2558
 3383SOL    HW210466   1.102   2.296   4.267 -1.6744 -0.3273 -0.7480
 3384SOL     OW10467   2.108   0.807   1.650 -0.4326  0.3870 -0.1721
 3384SOL    HW110468   2.140   0.721   1.624  0.4706  0.8080 -0.5084
 3384SOL    HW210469   2.105   0.805   1.745 -1.2696 -0.3022 -0.1977
 3385SOL     OW10470   4.799   0.604   2.884  0.5252  0.0939 -0.7705
 3385SOL    HW110471   4.791   0.513   2.854  1.9372  0.4047 -2.2323
 3385SOL    HW210472   4.856   0.645   2.819  2.1732  1.3350  1.3469
 3386SOL     OW10473   1.509   5.082   2.376  0.3303 -0.3598  0.0522
 3386SOL    HW110474   1.429   5.134   2.369 -0.1290 -1.2070 -1.6184
 3386SOL    HW210475   1.482   5.002   2.421  0.6639  0.1369  1.1454
 3387SOL     OW10476   5.056   4.889   0.127  0.3662  0.0519 -0.0078
 3387SOL    HW110477   5.058   4.796   0.150  1.0292  0.1507  0.3454
 3387SOL    HW210478   5.082   4.934   0.207  0.7727  0.5015 -0.3899
 3388SOL     OW10479   0.247   4.768   4.027  0.1535 -0.3029  0.0471
 3388SOL    HW110480   0.325   4.732   3.984 -0.1006  0.1876 -0.8453
 3388SOL    HW210481   0.189   4.793   3.955 -0.0754  1.0193  0.6664
 3389SOL     OW10482   2.103   4.501   1.902 -0.2779 -0.2736 -0.0480
 3389SOL    HW110483   2.053   4.420   1.910 -2.1633  0.7790 -0.3676
 3389SOL    HW210484   2.105   4.536   1.991  0.4988 -0.6360  0.0824
 3390SOL     OW10485   3.294   1.262   4.928 -0.3163  0.6387  0.2421
 3390SOL    HW110486   3.271   1.304   4.845 -0.3082  0.8056  0.3251
 3390SOL    HW210487   3.389   1.263   4.930 -0.0809 -2.6529 -1.4771
 3391SOL     OW10488   3.494   4.554   5.492 -0.4245  0.4707  0.4617
 3391SOL    HW110489   3.496   4.506   5.575 -1.7880  1.9373  1.4010
 3391SOL    HW210490   3.586   4.563   5.468 -0.0812 -1.9339  0.5942
 3392SOL     OW10491   2.989   5.064   3.846 -0.4013 -0.0546 -0.3801
 3392SOL    HW110492   2.942   4.987   3.878 -2.1630  1.4760  0.8437
 3392SOL    HW210493   3.073   5.062   3.892 -1.3381 -0.0331  1.3907
 3393SOL     OW10494   0.631   2.543   2.318 -0.6419  0.1700  0.5159
 3393SOL    HW110495   0.541   2.523   2.343 -1.3295  1.3189 -0.8892
 3393SOL    HW210496   0.625   2.627   2.272  0.5237 -1.4351 -2.9437
 3394SOL     OW10497   3.926   5.340   5.192  1.0635 -0.5301  0.4325
 3394SOL    HW110498   3.973   5.309   5.269 -1.1002  0.9763  2.5223
 3394SOL    HW210499   3.865   5.406   5.227  0.0188  0.2533 -2.5968
 3395SOL     OW10500   1.347   4.898   3.005  0.0774  0.1143 -0.3676
 3395SOL    HW110501   1.296   4.954   3.063 -0.8301  0.0767 -1.1156
 3395SOL    HW210502   1.405   4.849   3.064 -1.7423 -0.8958  0.6616
 3396SOL     OW10503   4.716   4.304   2.774  0.6814  0.0078 -0.0143
 3396SOL    HW110504   4.708   4.323   2.867 -1.0299  0.5833 -0.2289
 3396SOL    HW210505   4.698   4.388   2.731  3.1736  0.1878 -0.8774
 3397SOL     OW10506   4.960   3.355   5.300  0.3214  0.1361 -0.0152
 3397SOL    HW110507   4.953   3.286   5.366  0.4434  1.1976  1.1430
 3397SOL    HW210508   5.025   3.416   5.335 -0.0859  1.0572 -0.8027
 3398SOL     OW10509   4.992   0.188   2.400  0.2543  0.2028  0.5977
 3398SOL    HW110510   4.939   0.109   2.391  0.1941  0.3664 -0.5546
 3398SOL    HW210511   5.070   0.158   2.448  0.3324 -0.6166 -0.0067
 3399SOL     OW10512   0.899   5.154   4.108  0.3340 -0.7120 -0.1134
 3399SOL    HW110513   0.854   5.207   4.175  1.0429 -0.6900  0.3598
 3399SOL    HW210514   0.863   5.066   4.119 -1.3044 -0.2520 -1.3048
 3400SOL     OW10515   0.372   3.427   3.380  0.5711  0.4197  0.6266
 3400SOL    HW110516   0.464   3.451   3.391 -0.1308  3.2533  1.0053
 3400SOL    HW210517   0.336   3.426   3.468 -0.1361  1.1358  0.3594
 3401SOL     OW10518   1.573   2.474   4.781  0.1591  0.1659  0.3577
 3401SOL    HW110519   1.523   2.430   4.851  0.9785  0.3640  1.0875
 3401SOL    HW210520   1.534   2.561   4.775 -2.3486 -0.9759 -1.9927
 3402SOL     OW10521   2.784   2.761   5.246 -0.0112  0.1166  0.1159
 3402SOL    HW110522   2.704   2.711   5.263 -0.0623 -0.0995 -0.7225
 3402SOL    HW210523   2.763   2.851   5.272 -1.8792  0.9517 -3.5832
 3403SOL     OW10524   5.419   0.355   5.341 -0.1625  0.2675 -0.2185
 3403SOL    HW110525   5.338   0.346   5.290 -1.0673  1.7585  0.8991
 3403SOL    HW210526   5.440   0.448   5.338  0.7888  0.0978  0.6146
 3404SOL     OW10527   2.586   3.375   1.020 -0.0262 -0.0494  0.4382
 3404SOL    HW110528   2.671   3.347   0.986 -1.0464 -2.1186 -0.6590
 3404SOL    HW210529   2.554   3.300   1.070 -1.8355  0.0218 -0.4935
 3405SOL     OW10530   4.927   3.812   5.009 -0.1901  0.1426  0.2650
 3405SOL    HW110531   5.005   3.789   5.061 -0.0817 -2.7709 -1.0005
 3405SOL    HW210532   4.961   3.865   4.937  0.3092  0.5465  0.7872
 3406SOL     OW10533   0.770   4.940   1.112  0.3479 -0.5274  0.2505
 3406SOL    HW110534   0.704   4.995   1.153 -1.3608 -3.7300  2.1677
 3406SOL    HW210535   0.720   4.877   1.059  1.9175 -2.1345  0.5660
 3407SOL     OW10536   3.291   1.665   2.639  0.5045 -0.0930  0.8509
 3407SOL    HW110537   3.268   1.650   2.548  0.1517  3.4928  0.1945
 3407SOL    HW210538   3.387   1.676   2.638  0.4666  0.2472  0.8428
 3408SOL     OW10539   5.498   4.602   3.797 -0.0999  0.2774  0.7677
 3408SOL    HW110540   5.487   4.697   3.794 -1.0174  0.1458 -0.6397
 3408SOL    HW210541   5.428   4.567   3.742  1.5389 -1.1180 -0.5552
 3409SOL     OW10542   3.089   5.140   0.096  0.1467 -0.2672  0.3988
 3409SOL    HW110543   3.155   5.107   0.035 -0.3375  0.3948 -0.5016
 3409SOL    HW210544   3.013   5.084   0.081  0.1901 -0.4299  0.7710
 3410SOL     OW10545   2.391   2.824   2.005  0.2494 -0.1825  0.0498
 3410SOL    HW110546   2.423   2.780   2.084 -0.5119  1.4324  1.3087
 3410SOL    HW210547   2.470   2.854   1.961  0.6780 -1.0152  0.2170
 3411SOL     OW10548   4.338   1.026   1.418  0.3643  0.3952  0.3108
 3411SOL    HW110549   4.347   1.022   1.323  0.0769  1.1866  0.2468
 3411SOL    HW210550   4.350   1.118   1.440  0.1659  0.2593  1.0165
 3412SOL     OW10551   3.713   4.475   4.098 -0.0238 -0.2902  0.6241
 3412SOL    HW110552   3.624   4.511   4.109  0.2377  0.7530 -0.3532
 3412SOL    HW210553   3.743   4.513   4.015  1.8163  0.3871  1.5506
 3413SOL     OW10554   0.817   1.748   0.300  0.6008  0.7894  0.2414
 3413SOL    HW110555   0.797   1.835   0.265 -0.3001  0.6557  0.4064
 3413SOL    HW210556   0.732   1.705   0.309  1.0969 -0.4337 -0.6634
 3414SOL     OW10557   1.017   4.150   2.021 -0.4402  0.5502 -0.1793
 3414SOL    HW110558   0.933   4.129   1.981 -1.1786  1.4389  0.8440
 3414SOL    HW210559   1.012   4.244   2.039  0.3479  0.4135  0.8561
 3415SOL     OW10560   3.674   3.755   5.494 -0.4418  0.1729  0.4632
 3415SOL    HW110561   3.700   3.697   5.423 -1.5139  1.2719 -0.8907
 3415SOL    HW210562   3.736   3.828   5.490 -0.1833 -0.0189  0.9951
 3416SOL     OW10563   2.364   2.151   3.272  0.3353 -0.2654 -0.4906
 3416SOL    HW110564   2.324   2.088   3.332 -1.5261  0.3534 -1.0191
 3416SOL    HW210565   2.448   2.171   3.312  0.7294 -2.6032 -0.0047
 3417SOL     OW10566   2.170   4.661   4.783 -0.1641  0.2618 -0.8621
 3417SOL    HW110567   2.085   4.629   4.814 -0.3757  0.1721 -1.5131
 3417SOL    HW210568   2.197   4.597   4.718  0.5849  0.0911 -0.4017
 3418SOL     OW10569   4.005   4.462   0.688 -0.4214  0.4047 -0.2045
 3418SOL    HW110570   3.913   4.459   0.712 -0.2458 -1.3976  0.4498
 3418SOL    HW210571   4.043   4.528   0.746 -0.9426 -0.3210  1.0203
 3419SOL     OW10572   5.492   2.114   3.172 -0.3312  0.5763 -0.5360
 3419SOL    HW110573   5.469   2.159   3.091 -0.0905 -0.1405 -1.0119
 3419SOL    HW210574   5.540   2.036   3.144  0.1547  0.5500  0.3163
 3420SOL     OW10575   1.488   4.327   3.101  0.0564  0.8286  0.2513
 3420SOL    HW110576   1.554   4.283   3.154 -0.7064  0.6401  1.0563
 3420SOL    HW210577   1.534   4.351   3.021 -0.0064 -3.2920 -1.2007
 3421SOL     OW10578   4.245   4.143   3.861 -0.4024 -0.0976 -0.1475
 3421SOL    HW110579   4.234   4.049   3.846 -0.7471  0.0252 -0.6733
 3421SOL    HW210580   4.330   4.163   3.822 -1.0367  0.1081 -1.4569
 3422SOL     OW10581   3.773   5.211   0.689 -0.3768  0.1938  0.3271
 3422SOL    HW110582   3.800   5.301   0.671  1.2371 -0.3951 -0.4299
 3422SOL    HW210583   3.855   5.162   0.695 -1.2327 -1.3400  0.0823
 3423SOL     OW10584   3.722   3.995   5.229 -0.6180 -0.6939  0.4830
 3423SOL    HW110585   3.779   3.995   5.307 -0.2268  0.3501  0.2131
 3423SOL    HW210586   3.641   4.036   5.259 -0.6150 -0.6575  0.4399
 3424SOL     OW10587   2.830   4.442   3.466 -0.0139  0.1665  0.5515
 3424SOL    HW110588   2.914   4.420   3.425  0.2156 -0.2172  1.2092
 3424SOL    HW210589   2.770   4.456   3.393  0.2261 -1.1114  0.0783
 3425SOL     OW10590   3.558   1.372   1.638 -0.1912  0.5511  0.0300
 3425SOL    HW110591   3.493   1.302   1.636  0.5648 -0.1582 -1.6565
 3425SOL    HW210592   3.621   1.345   1.705 -0.3086 -0.0072 -0.0806
 3426SOL     OW10593   1.216   1.224   0.232 -0.5896  0.7233 -0.1454
 3426SOL    HW110594   1.227   1.315   0.261 -1.6601  0.2846  1.8426
 3426SOL    HW210595   1.125   1.203   0.255 -0.0465 -1.1636  0.4235
 3427SOL     OW10596   2.201   1.598   2.437 -0.2004  0.2054 -0.7243
 3427SOL    HW110597   2.263   1.525   2.439 -1.0823 -0.5811 -1.3330
 3427SOL    HW210598   2.153   1.587   2.354 -0.2815  1.5337 -0.8733
 3428SOL     OW10599   0.176   3.880   2.528 -0.4985 -0.0172  0.1309
 3428SOL    HW110600   0.162   3.859   2.621 -0.6122 -0.3061  0.0507
 3428SOL    HW210601   0.090   3.909   2.497 -0.2154  1.1371  0.3807
 3429SOL     OW10602   3.650   1.317   4.636 -0.0398  0.3929 -0.3943
 3429SOL    HW110603   3.583   1.250   4.622 -1.0288  1.1264  0.6864
 3429SOL    HW210604   3.728   1.280   4.595 -1.2931 -0.0900 -2.5377
 3430SOL     OW10605   4.086   4.320   4.600  0.1853 -0.2140  0.1488
 3430SOL    HW110606   4.080   4.357   4.688  0.1326 -0.2492  0.1599
 3430SOL    HW210607   4.009   4.354   4.555 -0.7600 -1.5882  0.6381
 3431SOL     OW10608   4.067   1.848   4.165  0.0651  0.5921 -0.2146
 3431SOL    HW110609   4.043   1.810   4.249 -0.6027  1.7833  0.1572
 3431SOL    HW210610   4.137   1.910   4.186  0.3915  0.3750 -0.6485
 3432SOL     OW10611   5.416   2.655   5.038  0.0659  0.1720 -0.2895
 3432SOL    HW110612   5.391   2.744   5.061 -0.0840  0.1911 -0.5157
 3432SOL    HW210613   5.510   2.650   5.056  0.4953  0.9847 -2.1337
 3433SOL     OW10614   0.948   0.633   1.504 -0.0856 -0.2492 -0.1066
 3433SOL    HW110615   0.989   0.613   1.420 -1.3868 -0.1857 -0.7872
 3433SOL    HW210616   1.002   0.589   1.569 -0.5251 -2.5132 -1.2018
 3434SOL     OW10617   4.336   5.224   2.932 -0.3724  0.0317 -0.3818
 3434SOL    HW110618   4.266   5.160   2.922 -0.2566 -0.4748  1.7023
 3434SOL    HW210619   4.415   5.171   2.946 -0.1050  0.6144  0.3872
 3435SOL     OW10620   3.289   1.948   2.685  0.3869 -0.2350 -0.5114
 3435SOL    HW110621   3.274   1.854   2.697  2.3033 -0.6039 -0.6003
 3435SOL    HW210622   3.246   1.970   2.603 -0.8889 -0.8152 -0.0181
 3436SOL     OW10623   2.244   4.890   4.897 -0.3889  0.5008  0.1118
 3436SOL    HW110624   2.212   4.809   4.858 -1.5524  1.2287 -0.5130
 3436SOL    HW210625   2.274   4.943   4.823  1.3888  0.2481  0.5994
 3437SOL     OW10626   3.004   0.686   5.192  0.1581 -0.0848  0.4227
 3437SOL    HW110627   3.002   0.747   5.266 -4.9729 -0.2100  0.7442
 3437SOL    HW210628   3.010   0.600   5.232 -1.0529 -0.0708  0.6923
 3438SOL     OW10629   4.894   0.527   2.230  0.7631 -0.7740 -0.4057
 3438SOL    HW110630   4.928   0.529   2.141 -0.6846  2.2501 -1.0561
 3438SOL    HW210631   4.809   0.484   2.222  0.0374  0.6571 -0.8336
 3439SOL     OW10632   3.921   5.241   2.867  0.1053  0.2357 -0.3853
 3439SOL    HW110633   3.910   5.312   2.804  0.6916 -0.6472 -1.5419
 3439SOL    HW210634   4.002   5.198   2.840  0.5394  0.0181  1.1930
 3440SOL     OW10635   3.334   2.474   3.899 -0.2948 -0.7517 -0.1717
 3440SOL    HW110636   3.383   2.457   3.979  0.2002  0.1650 -0.2659
 3440SOL    HW210637   3.343   2.568   3.885  0.2819 -1.0036 -1.7091
 3441SOL     OW10638   3.244   0.713   0.166 -0.5248 -0.8481  0.2525
 3441SOL    HW110639   3.191   0.634   0.149 -1.0345 -0.2897 -0.9056
 3441SOL    HW210640   3.248   0.719   0.261 -2.0718 -1.2305  0.3753
 3442SOL     OW10641   0.139   5.531   0.611  0.4008  0.6128  0.0833
 3442SOL    HW110642   0.067   5.490   0.659  0.7285  1.4444  1.3330
 3442SOL    HW210643   0.096   5.591   0.550 -0.0680 -1.3230 -1.5593
 3443SOL     OW10644   5.075   0.756   0.516  0.0115  0.1241 -0.9417
 3443SOL    HW110645   4.997   0.803   0.544  0.2579  0.7385 -1.2740
 3443SOL    HW210646   5.148   0.806   0.553  0.2391 -1.3031  0.6991
 3444SOL     OW10647   3.702   0.417   2.524 -0.4198  0.1863 -0.1516
 3444SOL    HW110648   3.717   0.405   2.618 -1.5643 -3.3873 -0.2947
 3444SOL    HW210649   3.788   0.401   2.485 -0.3917 -0.5613  0.1905
 3445SOL     OW10650   4.525   4.572   1.852 -0.0017  0.1495 -0.2110
 3445SOL    HW110651   4.461   4.576   1.924 -0.9032  0.8236 -1.0257
 3445SOL    HW210652   4.603   4.614   1.888 -1.3606  3.1896 -0.5015
 3446SOL     OW10653   3.015   0.029   1.032  0.6837  0.0161 -0.3927
 3446SOL    HW110654   2.973   0.097   1.085 -0.3469  0.1795 -1.3874
 3446SOL    HW210655   3.092   0.003   1.084  2.0574  3.0279 -0.7035
 3447SOL     OW10656   0.500   2.535   3.861 -0.2060  0.1720  0.0606
 3447SOL    HW110657   0.413   2.565   3.833 -0.3710 -0.0353  0.3509
 3447SOL    HW210658   0.487   2.501   3.949 -0.1804 -1.4022 -0.5032
 3448SOL     OW10659   4.771   3.400   1.847  0.1153  0.1110  0.4110
 3448SOL    HW110660   4.724   3.479   1.876 -0.1666  0.0381  0.1587
 3448SOL    HW210661   4.839   3.433   1.788  0.5236  0.2365  0.9428
 3449SOL     OW10662   0.758   4.016   3.182  0.1313  0.0056  0.7043
 3449SOL    HW110663   0.851   3.993   3.183  0.1518  0.0204 -0.0713
 3449SOL    HW210664   0.750   4.089   3.243  0.4318 -0.7182  1.6294
 3450SOL     OW10665   1.822   0.536   4.199 -0.2405  0.1518 -0.5796
 3450SOL    HW110666   1.855   0.626   4.206  0.3611 -0.1274  0.3063
 3450SOL    HW210667   1.834   0.499   4.286  0.5456 -1.1428 -1.2037
 3451SOL     OW10668   5.276   5.004   2.373  0.5146 -0.1595 -0.1147
 3451SOL    HW110669   5.235   4.943   2.312 -0.4773 -1.2846  1.5675
 3451SOL    HW210670   5.319   4.947   2.438 -0.3697  0.8761  1.4635
 3452SOL     OW10671   5.024   4.763   3.355  0.1112 -0.3541  0.6385
 3452SOL    HW110672   5.073   4.792   3.433  1.7558  1.3680 -0.9452
 3452SOL    HW210673   5.092   4.747   3.289 -1.4009  1.7965 -1.5723
 3453SOL     OW10674   2.992   0.232   1.575 -0.3349 -0.0644  0.3133
 3453SOL    HW110675   3.042   0.308   1.604 -0.6712 -0.1354  1.1001
 3453SOL    HW210676   3.040   0.200   1.498 -0.5480  1.3196 -0.4404
 3454SOL     OW10677   1.236   4.678   3.828 -0.5958 -0.8455  0.0767
 3454SOL    HW110678   1.150   4.658   3.792 -0.7814  0.1106 -0.0465
 3454SOL    HW210679   1.250   4.770   3.805 -0.3970 -0.4236  1.7678
 3455SOL     OW10680   2.843   2.103   3.968 -0.4250 -0.2881 -0.1217
 3455SOL    HW110681   2.809   2.147   4.045 -0.5895 -0.2608 -0.2107
 3455SOL    HW210682   2.809   2.153   3.893  0.2307  0.0470 -0.2007
 3456SOL     OW10683   5.397   1.980   3.727  0.4996  0.1103 -0.8311
 3456SOL    HW110684   5.482   2.022   3.737  1.2470 -1.6777  1.1700
 3456SOL    HW210685   5.397   1.947   3.637  1.8220  0.3446 -0.9344
 3457SOL     OW10686   4.835   2.516   2.468  0.2026 -0.4569 -0.5632
 3457SOL    HW110687   4.924   2.550   2.476  0.5776 -0.7402 -2.7872
 3457SOL    HW210688   4.782   2.574   2.522  1.2042  2.1173 -2.1856
 3458SOL     OW10689   2.360   3.685   5.438 -0.0843 -0.3404 -0.0241
 3458SOL    HW110690   2.305   3.762   5.448 -0.7174 -0.6142 -1.2425
 3458SOL    HW210691   2.433   3.700   5.497 -0.6995  0.7305  0.4891
 3459SOL     OW10692   2.324   5.547   1.900 -0.6920 -0.6993  0.4759
 3459SOL    HW110693   2.396   5.497   1.940  0.4833  0.5700  0.0148
 3459SOL    HW210694   2.320   5.515   1.810 -0.9680 -1.0495  0.6123
 3460SOL     OW10695   0.488   2.239   4.427  0.0989 -0.4010 -0.0959
 3460SOL    HW110696   0.402   2.264   4.391 -1.1556 -2.1495  1.5275
 3460SOL    HW210697   0.491   2.280   4.513  1.4584  0.6123 -0.5775
 3461SOL     OW10698   1.348   4.865   2.507  0.1002 -0.8936 -0.2851
 3461SOL    HW110699   1.255   4.850   2.491 -0.2196 -1.0750  1.5306
 3461SOL    HW210700   1.376   4.788   2.557  0.8571 -0.1452  0.4687
 3462SOL     OW10701   3.106   4.080   3.508 -0.2641 -0.3094  0.2103
 3462SOL    HW110702   3.146   4.070   3.422 -0.4312 -3.8043  0.4116
 3462SOL    HW210703   3.013   4.091   3.490 -0.5593 -2.7729 -0.1442
 3463SOL     OW10704   0.531   3.757   0.508  0.7814  0.1847 -0.3133
 3463SOL    HW110705   0.559   3.751   0.600 -0.6362  0.1117  0.1370
 3463SOL    HW210706   0.441   3.725   0.509  0.5090  0.8785 -1.6281
 3464SOL     OW10707   3.060   0.297   4.714 -0.0787 -0.0048 -0.3466
 3464SOL    HW110708   2.994   0.230   4.733 -0.4588  0.6782  0.8563
 3464SOL    HW210709   3.076   0.289   4.620 -2.7677  0.5802 -0.9399
 3465SOL     OW10710   3.222   0.553   1.215  0.7114  0.4116 -0.0436
 3465SOL    HW110711   3.207   0.503   1.296 -1.5330  0.2752 -0.4668
 3465SOL    HW210712   3.295   0.509   1.172 -0.8655 -2.2969 -0.1691
 3466SOL     OW10713   5.520   0.594   0.992  0.3176 -0.3538 -0.0650
 3466SOL    HW110714   5.437   0.626   1.028 -0.1654  0.8489 -2.1380
 3466SOL    HW210715   5.501   0.504   0.966  0.1570 -0.6298  0.9466
 3467SOL     OW10716   0.400   4.149   0.917 -0.0449  0.2632  0.3815
 3467SOL    HW110717   0.430   4.175   1.004 -0.2505  1.5667  0.0867
 3467SOL    HW210718   0.475   4.107   0.877 -0.0797 -0.7805  1.3335
 3468SOL     OW10719   3.650   3.205   3.217  0.3972 -0.1960  0.4012
 3468SOL    HW110720   3.559   3.191   3.192  0.4265 -3.0829  1.5330
 3468SOL    HW210721   3.649   3.204   3.313  1.5167  0.7355  0.4521
 3469SOL     OW10722   3.391   3.875   3.655 -0.7150 -0.2432 -0.3338
 3469SOL    HW110723   3.341   3.954   3.676  1.6608  1.8994 -2.0594
 3469SOL    HW210724   3.326   3.814   3.620 -2.4734  1.4643 -0.2243
 3470SOL     OW10725   0.196   3.924   3.800 -0.0073  0.0074 -0.6281
 3470SOL    HW110726   0.198   4.014   3.832  1.5531 -0.5315  0.8984
 3470SOL    HW210727   0.243   3.927   3.717  2.3578  0.2130  0.6403
 3471SOL     OW10728   4.796   3.039   4.641 -0.0842 -0.0531  0.3663
 3471SOL    HW110729   4.792   2.945   4.623  1.5766  0.2197 -1.7782
 3471SOL    HW210730   4.764   3.080   4.561  0.5115  1.2186  0.7576
 3472SOL     OW10731   0.754   4.017   4.767 -0.2132 -0.4865  0.1268
 3472SOL    HW110732   0.762   3.936   4.717  0.4903 -0.5106  0.2595
 3472SOL    HW210733   0.752   3.988   4.858  1.5887 -0.3036  0.2680
 3473SOL     OW10734   3.734   0.887   4.024  0.2064 -1.0018  0.2849
 3473SOL    HW110735   3.647   0.903   3.985  0.6144  0.1799 -0.1993
 3473SOL    HW210736   3.731   0.935   4.107  1.2517  1.3183 -0.9212
 3474SOL     OW10737   3.908   2.715   3.636 -0.2003 -0.6858 -0.2564
 3474SOL    HW110738   3.903   2.628   3.677 -2.7756 -0.5947 -0.2340
 3474SOL    HW210739   3.837   2.716   3.572  0.7359  0.8954 -1.3392
 3475SOL     OW10740   1.343   1.265   4.172  0.3601  0.4329 -0.0732
 3475SOL    HW110741   1.410   1.261   4.103 -0.9097  1.0889 -1.3827
 3475SOL    HW210742   1.306   1.176   4.174  1.5378 -0.0582  0.9649
 3476SOL     OW10743   3.179   1.046   0.131 -0.6218  0.0323  0.0350
 3476SOL    HW110744   3.201   1.040   0.224 -1.6028  1.9806  0.4568
 3476SOL    HW210745   3.105   1.107   0.128  0.1604  0.9717 -2.1228
 3477SOL     OW10746   4.414   3.315   4.535  0.3513  0.2168  0.0751
 3477SOL    HW110747   4.455   3.373   4.471 -2.7798  0.0419 -2.3290
 3477SOL    HW210748   4.442   3.227   4.508 -0.2598  0.2086 -0.5839
 3478SOL     OW10749   0.818   3.873   5.290  0.1612 -0.2736 -0.1826
 3478SOL    HW110750   0.757   3.921   5.346  0.6400 -0.2683  0.3413
 3478SOL    HW210751   0.861   3.941   5.238 -0.3149 -0.2821 -0.6032
 3479SOL     OW10752   3.910   3.762   4.281 -0.2568 -1.0140 -0.3939
 3479SOL    HW110753   3.939   3.730   4.196  0.5899  0.4083 -0.6787
 3479SOL    HW210754   3.906   3.684   4.337 -0.0624 -1.8469 -1.5222
 3480SOL     OW10755   2.924   1.242   2.519 -0.3947  0.2047  0.7706
 3480SOL    HW110756   3.019   1.229   2.525 -0.5104 -0.2673  1.8331
 3480SOL    HW210757   2.913   1.307   2.450  0.5799 -1.1386 -0.7201
 3481SOL     OW10758   3.599   2.326   2.587  0.1811  0.6428  0.0523
 3481SOL    HW110759   3.506   2.332   2.609  0.0836 -1.3455  0.4036
 3481SOL    HW210760   3.601   2.311   2.493 -0.0632 -1.7666  0.3586
 3482SOL     OW10761   3.595   0.798   2.095  0.2143 -0.0377  0.0190
 3482SOL    HW110762   3.690   0.782   2.093  0.3610  0.7762 -0.0491
 3482SOL    HW210763   3.562   0.756   2.016  0.7683  1.0993 -0.8520
 3483SOL     OW10764   3.405   0.208   0.670  0.2923 -0.1896  0.1973
 3483SOL    HW110765   3.457   0.283   0.699  1.5298 -0.7145 -0.5536
 3483SOL    HW210766   3.314   0.232   0.688  0.7239  1.1975  0.5922
 3484SOL     OW10767   4.321   1.186   2.924 -0.4581 -0.4626 -0.4737
 3484SOL    HW110768   4.397   1.196   2.982  1.0803 -1.9675 -2.0759
 3484SOL    HW210769   4.299   1.093   2.929 -1.6783 -0.2031 -0.6949
 3485SOL     OW10770   0.799   0.524   3.840  0.5133  0.3632 -0.2493
 3485SOL    HW110771   0.718   0.574   3.832 -0.3661 -0.7931  1.0856
 3485SOL    HW210772   0.852   0.574   3.902  0.4797  0.6476 -0.4423
 3486SOL     OW10773   2.868   0.276   3.078 -0.2416 -0.9138  0.2290
 3486SOL    HW110774   2.925   0.255   3.004 -0.4249 -0.6785  0.0188
 3486SOL    HW210775   2.849   0.369   3.068 -3.2028 -1.5837 -1.5110
 3487SOL     OW10776   0.195   0.757   4.534  0.4825 -0.0093  0.0682
 3487SOL    HW110777   0.186   0.852   4.527  1.1908  0.2672  2.2191
 3487SOL    HW210778   0.262   0.735   4.470  0.8861  1.0464  0.1029
 3488SOL     OW10779   2.014   2.194   1.905  0.0479 -0.0177  0.2662
 3488SOL    HW110780   1.978   2.192   1.994  2.3797 -2.2863  1.2938
 3488SOL    HW210781   1.946   2.155   1.850 -1.4582  1.4924  0.9680
 3489SOL     OW10782   2.202   2.838   3.909 -0.0895  0.3319  0.8769
 3489SOL    HW110783   2.125   2.791   3.941  1.5912 -1.1831  2.9619
 3489SOL    HW210784   2.223   2.796   3.825 -0.6428 -0.2465  1.0210
 3490SOL     OW10785   0.257   2.515   0.621 -0.0769 -0.8871  0.2534
 3490SOL    HW110786   0.334   2.459   0.634 -0.8041 -1.6957  1.1472
 3490SOL    HW210787   0.238   2.550   0.708  0.1493  0.5130 -0.2230
 3491SOL     OW10788   2.493   0.494   4.299 -0.1775 -0.3727  0.7043
 3491SOL    HW110789   2.464   0.529   4.215  1.8105  0.6677  0.4100
 3491SOL    HW210790   2.549   0.420   4.277 -1.2079 -1.3554  1.2245
 3492SOL     OW10791   1.988   0.556   1.867  0.1207 -0.1466 -1.0244
 3492SOL    HW110792   2.013   0.476   1.820  0.1783  0.6480 -2.3886
 3492SOL    HW210793   2.046   0.558   1.943  0.2116 -1.3324 -1.0454
 3493SOL     OW10794   1.767   0.104   2.845  0.2781 -0.2335 -0.6421
 3493SOL    HW110795   1.773   0.117   2.750 -0.4933  0.7859 -0.5647
 3493SOL    HW210796   1.741   0.189   2.880  0.3544 -0.6468  0.4715
 3494SOL     OW10797   3.401   1.132   1.106  0.3505 -0.0315 -0.0693
 3494SOL    HW110798   3.411   1.217   1.149 -2.5059  0.6137 -0.4688
 3494SOL    HW210799   3.458   1.137   1.029 -0.1674  1.7588 -0.3921
 3495SOL     OW10800   1.222   3.403   3.634 -0.6468  0.1674 -0.0398
 3495SOL    HW110801   1.217   3.428   3.542  0.4905 -0.1663 -0.2125
 3495SOL    HW210802   1.171   3.323   3.640  0.5113 -0.6578 -0.7202
 3496SOL     OW10803   2.129   4.102   2.791 -0.2745 -0.2874  0.1142
 3496SOL    HW110804   2.142   4.157   2.714  1.3469 -1.1269 -0.2530
 3496SOL    HW210805   2.122   4.164   2.863 -0.3988  0.4670 -0.5238
 3497SOL     OW10806   0.303   2.275   1.559 -0.3494 -0.4891  0.1068
 3497SOL    HW110807   0.234   2.324   1.514 -1.8281 -1.8125  0.8500
 3497SOL    HW210808   0.266   2.256   1.645  1.0628 -1.0283  0.6154
 3498SOL     OW10809   5.358   4.509   2.102 -0.3966  0.1145 -0.0012
 3498SOL    HW110810   5.395   4.477   2.185  2.1553 -0.3059 -1.1981
 3498SOL    HW210811   5.421   4.574   2.072 -1.9406  1.1946 -1.0469
 3499SOL     OW10812   1.788   4.416   1.073  0.1980 -0.1396  0.6475
 3499SOL    HW110813   1.877   4.422   1.037  0.0778 -1.0018  0.1817
 3499SOL    HW210814   1.735   4.469   1.014  0.2285 -0.4519  0.3414
 3500SOL     OW10815   4.986   3.221   0.035  0.2320 -0.1465  0.8133
 3500SOL    HW110816   4.911   3.184   0.082  0.9136 -0.9354  1.2893
 3500SOL    HW210817   5.024   3.147  -0.012  0.4827  0.3322  0.2424
 3501SOL     OW10818   0.447   2.387   5.090 -0.4220 -0.5716 -0.4865
 3501SOL    HW110819   0.487   2.310   5.049  2.6389  0.3139  0.5778
 3501SOL    HW210820   0.491   2.396   5.174 -1.5730  1.6483 -0.0361
 3502SOL     OW10821   0.694   5.075   1.500 -0.2280  0.3473  0.1023
 3502SOL    HW110822   0.688   4.988   1.540  1.7192 -0.5517 -1.4074
 3502SOL    HW210823   0.654   5.065   1.414  1.5143  0.4620 -0.7453
 3503SOL     OW10824   1.209   0.579   0.118  0.0045 -0.1536 -0.0088
 3503SOL    HW110825   1.198   0.498   0.167 -4.0722  0.5106  0.5468
 3503SOL    HW210826   1.251   0.640   0.179  0.6240 -1.0561  0.4767
 3504SOL     OW10827   3.679   4.280   2.250  0.2679 -0.1882  0.0158
 3504SOL    HW110828   3.757   4.268   2.304  0.4767  1.2114  0.0737
 3504SOL    HW210829   3.607   4.242   2.301  0.3775  1.5087  1.5308
 3505SOL     OW10830   1.010   1.399   1.077  0.1494  0.0118 -0.3606
 3505SOL    HW110831   1.076   1.349   1.028 -0.9599 -1.4902 -0.3793
 3505SOL    HW210832   0.968   1.455   1.011  0.2708 -0.2544 -0.6654
 3506SOL     OW10833   2.786   0.947   4.918  0.0336  0.3954 -0.3429
 3506SOL    HW110834   2.864   0.986   4.879  1.3794 -1.8477 -0.0478
 3506SOL    HW210835   2.735   0.916   4.842 -0.2707  1.2708 -0.5080
 3507SOL     OW10836   3.724   3.960   4.218  0.0981 -0.2361 -0.4672
 3507SOL    HW110837   3.656   3.912   4.171  0.2032 -0.4003 -0.4537
 3507SOL    HW210838   3.795   3.897   4.228  0.2842 -0.0394 -0.5515
 3508SOL     OW10839   0.443   4.356   4.026  0.6954  0.0830 -0.2500
 3508SOL    HW110840   0.526   4.325   3.990  0.9806  0.1177  0.3581
 3508SOL    HW210841   0.457   4.356   4.121  0.2767  0.8750 -0.1820
 3509SOL     OW10842   3.975   5.250   2.466  0.1004 -0.1195  0.0185
 3509SOL    HW110843   4.007   5.328   2.420  2.5739 -0.5345  0.8892
 3509SOL    HW210844   3.942   5.193   2.397 -0.8591  1.2424 -0.7210
 3510SOL     OW10845   3.940   5.272   1.404  0.0850 -0.4555 -0.3938
 3510SOL    HW110846   3.947   5.307   1.315  1.1181 -0.2150 -0.2361
 3510SOL    HW210847   3.980   5.340   1.459 -1.1068 -0.3164  0.3302
 3511SOL     OW10848   1.873   1.981   3.366 -0.6274  0.0434  0.2382
 3511SOL    HW110849   1.896   1.981   3.459 -1.8049 -0.3910  0.5429
 3511SOL    HW210850   1.931   2.047   3.328  0.3346 -0.2344  1.1481
 3512SOL     OW10851   1.769   5.449   1.553  0.0450 -0.1223 -0.0126
 3512SOL    HW110852   1.752   5.535   1.590 -1.1718 -0.6956  0.8197
 3512SOL    HW210853   1.720   5.388   1.609 -2.0401 -1.0204 -2.5578
 3513SOL     OW10854   4.741   3.939   2.240 -0.3118  0.0683  0.1499
 3513SOL    HW110855   4.801   3.880   2.285  0.2099 -0.3653 -1.0784
 3513SOL    HW210856   4.752   4.023   2.285  2.6242  0.5031 -1.1635
 3514SOL     OW10857   2.981   2.464   0.955  0.3780  0.0654 -0.5656
 3514SOL    HW110858   3.033   2.509   1.022  1.3556  0.8369 -1.7952
 3514SOL    HW210859   3.045   2.442   0.886 -0.7631  0.2817 -1.7299
 3515SOL     OW10860   0.916   3.867   4.445 -0.1131  0.2995  0.6247
 3515SOL    HW110861   0.874   3.799   4.498 -0.5058 -0.2134 -0.2999
 3515SOL    HW210862   0.844   3.908   4.398  0.3691 -0.5579 -0.9470
 3516SOL     OW10863   2.588   5.273   0.913 -0.2670  1.0323 -0.1417
 3516SOL    HW110864   2.536   5.349   0.888  0.4126  0.9699 -1.9067
 3516SOL    HW210865   2.661   5.309   0.964 -0.8426  1.3598  0.4638
 3517SOL     OW10866   4.920   2.226   4.392  0.0358 -0.1850  0.0690
 3517SOL    HW110867   4.865   2.233   4.471  0.8521  0.1148  0.6287
 3517SOL    HW210868   4.874   2.277   4.326  0.3867  1.3526  0.9610
 3518SOL     OW10869   4.838   5.317   3.377  0.2303  0.1197 -0.1558
 3518SOL    HW110870   4.774   5.258   3.338 -0.7578  1.6814 -0.9752
 3518SOL    HW210871   4.852   5.282   3.466 -1.4332 -0.4934 -0.1033
 3519SOL     OW10872   1.822   2.116   1.734  0.1046  0.2925  0.2681
 3519SOL    HW110873   1.866   2.163   1.663 -0.6171  0.3308 -0.1692
 3519SOL    HW210874   1.769   2.050   1.689 -0.1322  0.1172  0.7932
 3520SOL     OW10875   5.108   1.166   2.680  0.0960  0.4342 -0.2252
 3520SOL    HW110876   5.041   1.215   2.728  0.8284  2.0020 -0.7276
 3520SOL    HW210877   5.115   1.083   2.727 -1.4903  0.6235  0.4093
 3521SOL     OW10878   3.507   2.819   0.271  0.1176 -0.0670  0.0832
 3521SOL    HW110879   3.492   2.864   0.188 -1.3244  1.0837  0.9433
 3521SOL    HW210880   3.426   2.771   0.289 -0.4261  1.3932  1.8346
 3522SOL     OW10881   3.067   4.593   0.109  0.0525  0.2303  0.6602
 3522SOL    HW110882   3.005   4.650   0.156  0.4696 -0.2835  1.8751
 3522SOL    HW210883   3.150   4.606   0.154  0.2097 -1.1664  0.8179
 3523SOL     OW10884   4.840   3.386   0.876  0.0672  0.3274  0.2952
 3523SOL    HW110885   4.881   3.432   0.950 -1.6480 -0.2813  1.6845
 3523SOL    HW210886   4.753   3.362   0.908  0.2518 -2.3614 -0.9583
 3524SOL     OW10887   0.623   3.853   2.997 -0.3527 -0.1713  0.2874
 3524SOL    HW110888   0.548   3.897   2.958 -0.1823 -0.4702 -0.3896
 3524SOL    HW210889   0.647   3.909   3.072 -0.1415  0.8987 -0.5466
 3525SOL     OW10890   3.791   4.421   2.824  0.1672  0.2438  0.3947
 3525SOL    HW110891   3.822   4.426   2.915  0.1927  0.5884  0.3680
 3525SOL    HW210892   3.809   4.508   2.788 -1.5759  0.7216  0.6107
 3526SOL     OW10893   0.439   4.024   4.460  0.4877  0.6564 -0.1540
 3526SOL    HW110894   0.381   4.086   4.415  1.1018  0.4478 -1.2575
 3526SOL    HW210895   0.492   4.079   4.518 -0.5865  0.8820  0.6567
 3527SOL     OW10896   0.774   2.394   1.830  0.0772 -0.1887 -0.4301
 3527SOL    HW110897   0.780   2.301   1.809 -0.8183 -0.3251 -0.1460
 3527SOL    HW210898   0.699   2.400   1.890  1.6216  0.3938  1.5425
 3528SOL     OW10899   2.700   0.576   2.815 -0.0142 -0.3024  0.2878
 3528SOL    HW110900   2.741   0.524   2.746 -2.2679 -1.0011 -0.5923
 3528SOL    HW210901   2.623   0.615   2.773 -0.5845  0.4973  2.0084
 3529SOL     OW10902   4.734   3.974   4.413 -0.0817  0.2320 -0.5935
 3529SOL    HW110903   4.768   3.913   4.347 -0.7310  1.5309 -2.1918
 3529SOL    HW210904   4.782   4.055   4.398  0.6828  0.1939  1.4274
 3530SOL     OW10905   2.834   0.568   0.627  1.1570 -0.1757  0.3719
 3530SOL    HW110906   2.801   0.558   0.716  1.5986 -2.1332  0.3709
 3530SOL    HW210907   2.926   0.539   0.632  1.9071  1.9184 -0.2872
 3531SOL     OW10908   3.687   3.394   1.348 -0.1660  0.4668  0.1943
 3531SOL    HW110909   3.647   3.404   1.435  1.3093  0.8815  0.8565
 3531SOL    HW210910   3.756   3.461   1.346 -0.6008  0.9142 -1.5614
 3532SOL     OW10911   3.059   3.541   2.234  0.4085  0.0593  0.1987
 3532SOL    HW110912   3.144   3.571   2.266  2.2037 -3.1963 -1.0289
 3532SOL    HW210913   3.045   3.592   2.154  1.2741  0.5194  0.3242
 3533SOL     OW10914   3.672   3.565   4.342  0.4039  0.1860 -0.1935
 3533SOL    HW110915   3.735   3.493   4.344  0.1678 -0.0207 -0.1576
 3533SOL    HW210916   3.637   3.564   4.254 -0.2257 -0.2905  0.0559
 3534SOL     OW10917   0.125   3.050   2.734  0.4006  0.2755  0.1386
 3534SOL    HW110918   0.042   3.096   2.724 -0.0584 -0.1776  1.6113
 3534SOL    HW210919   0.121   2.978   2.671  0.4786  1.3168 -1.0976
 3535SOL     OW10920   0.611   2.205   3.010  0.2641 -0.6295  0.3173
 3535SOL    HW110921   0.603   2.220   2.916  1.3029 -1.0940  0.1363
 3535SOL    HW210922   0.598   2.291   3.049  2.8213  0.1999 -0.4693
 3536SOL     OW10923   1.094   2.588   2.735  0.8298  0.6664 -0.0669
 3536SOL    HW110924   1.000   2.582   2.717  0.4121 -2.7970  2.3320
 3536SOL    HW210925   1.098   2.618   2.826  2.0440  0.7764 -0.1508
 3537SOL     OW10926   4.172   3.442   3.007 -0.1907  0.3597  0.1982
 3537SOL    HW110927   4.173   3.514   2.944 -0.3074  0.8686  0.7753
 3537SOL    HW210928   4.088   3.399   2.994 -0.9898  1.5526  1.2198
 3538SOL     OW10929   4.215   0.628   4.133 -0.2843  0.4092 -0.0042
 3538SOL    HW110930   4.149   0.696   4.118  0.3581  0.9751 -0.3269
 3538SOL    HW210931   4.271   0.633   4.056 -0.7555 -1.1152 -0.4832
 3539SOL     OW10932   4.914   3.820   5.445 -0.0777 -0.3293 -0.3621
 3539SOL    HW110933   4.872   3.811   5.530 -1.5820  1.4248 -0.8585
 3539SOL    HW210934   4.851   3.784   5.383 -0.8070  1.9739 -1.0776
 3540SOL     OW10935   1.833   0.416   1.304 -0.0802  0.1684 -0.3768
 3540SOL    HW110936   1.906   0.358   1.326 -0.8212 -0.6552 -0.0368
 3540SOL    HW210937   1.791   0.374   1.228 -2.6932 -1.7023  1.8943
 3541SOL     OW10938   1.986   5.204   0.282 -0.5464  0.4377 -0.0906
 3541SOL    HW110939   1.895   5.176   0.298 -0.1489 -1.1488 -0.4100
 3541SOL    HW210940   2.039   5.130   0.312  0.5954  0.9985 -0.6839
 3542SOL     OW10941   2.703   3.336   4.244  0.2053 -0.4522 -0.2773
 3542SOL    HW110942   2.625   3.300   4.287  1.2904 -1.2708  1.0966
 3542SOL    HW210943   2.776   3.285   4.280  1.2553 -0.9750 -2.9051
 3543SOL     OW10944   1.742   3.823   3.579  0.1430  0.4234  0.1843
 3543SOL    HW110945   1.706   3.840   3.492  0.0053  0.1567  0.1880
 3543SOL    HW210946   1.667   3.796   3.631  0.3756 -0.3343  0.1404
 3544SOL     OW10947   5.259   5.150   2.031 -0.4873 -0.2585 -0.2544
 3544SOL    HW110948   5.283   5.216   2.095  0.2639 -0.0022 -0.7806
 3544SOL    HW210949   5.225   5.200   1.956 -0.6102 -0.5079 -0.3665
 3545SOL     OW10950   4.316   0.954   3.534 -0.2297 -0.0337 -0.2596
 3545SOL    HW110951   4.244   0.921   3.480 -0.6125  2.1705 -1.1976
 3545SOL    HW210952   4.287   0.941   3.624 -0.3604 -2.1308 -0.5646
 3546SOL     OW10953   4.155   1.200   0.186  0.2287 -0.0994  0.2048
 3546SOL    HW110954   4.112   1.171   0.266 -3.0842  2.2394 -0.5174
 3546SOL    HW210955   4.204   1.278   0.211 -0.1148  0.1493  0.1008
 3547SOL     OW10956   1.623   5.413   3.439 -0.1005  0.3390  0.8387
 3547SOL    HW110957   1.607   5.507   3.441 -1.0016  0.2124  0.2591
 3547SOL    HW210958   1.710   5.402   3.477 -0.0359  1.3908  1.0145
 3548SOL     OW10959   5.212   4.355   4.654 -0.7278  0.0237 -0.7131
 3548SOL    HW110960   5.227   4.311   4.570 -1.9393  0.8877 -1.4245
 3548SOL    HW210961   5.127   4.324   4.683  0.8375 -2.4183  1.6745
 3549SOL     OW10962   1.855   2.569   0.127 -0.3579  0.1348 -0.0261
 3549SOL    HW110963   1.852   2.481   0.165  0.0887  0.3726  0.5853
 3549SOL    HW210964   1.783   2.616   0.168  1.3319  0.9985  2.1531
 3550SOL     OW10965   5.316   2.959   3.249 -0.9996 -0.0593 -0.4461
 3550SOL    HW110966   5.367   2.911   3.185 -1.4952 -0.9617 -0.1828
 3550SOL    HW210967   5.315   2.903   3.327 -1.1341  0.6217  0.0629
 3551SOL     OW10968   2.114   2.003   4.587 -0.1823  0.1854 -0.1848
 3551SOL    HW110969   2.134   1.995   4.494 -0.5736 -0.3693 -0.2265
 3551SOL    HW210970   2.199   2.018   4.629  0.1013 -0.4409 -0.5321
 3552SOL     OW10971   2.050   4.898   3.933 -0.4126  0.2410  0.2712
 3552SOL    HW110972   2.014   4.980   3.968 -0.5827  0.5399 -0.5652
 3552SOL    HW210973   1.983   4.868   3.871  0.6450  0.6869 -1.1491
 3553SOL     OW10974   1.888   3.811   4.588 -0.1384 -0.5022  0.3996
 3553SOL    HW110975   1.886   3.881   4.522  0.2819  0.2620  1.1734
 3553SOL    HW210976   1.916   3.733   4.539  2.0392  0.4462 -0.0163
 3554SOL     OW10977   3.179   2.946   0.833 -0.1583 -0.1389 -0.7766
 3554SOL    HW110978   3.243   3.018   0.831 -0.5928  0.2558 -0.5276
 3554SOL    HW210979   3.227   2.874   0.874 -0.7303  1.0496  2.3244
 3555SOL     OW10980   0.597   1.067   0.604  0.7556 -0.0933  0.1480
 3555SOL    HW110981   0.603   1.032   0.515  0.1194  1.5407 -0.5904
 3555SOL    HW210982   0.629   1.157   0.596 -2.8881  1.4593  0.6630
 3556SOL     OW10983   2.562   3.257   5.340  0.0497 -0.6002 -0.0546
 3556SOL    HW110984   2.486   3.303   5.306  1.5678  1.5874 -0.7395
 3556SOL    HW210985   2.637   3.297   5.296  1.7390 -1.3825  1.8911
 3557SOL     OW10986   5.270   4.162   1.887  0.2304  0.5168 -0.4986
 3557SOL    HW110987   5.364   4.160   1.868  0.1723  0.6379 -0.8150
 3557SOL    HW210988   5.238   4.238   1.838 -0.5000 -1.0474 -2.6265
 3558SOL     OW10989   0.237   3.395   1.248  0.0613 -0.0692 -0.3263
 3558SOL    HW110990   0.142   3.398   1.256 -0.2481 -2.0037 -2.2976
 3558SOL    HW210991   0.262   3.310   1.286  0.9571  0.2066 -0.2578
 3559SOL     OW10992   1.447   2.202   5.223  0.2739 -0.0337 -0.1079
 3559SOL    HW110993   1.538   2.232   5.214  0.0663  0.6580  0.0247
 3559SOL    HW210994   1.427   2.163   5.138  1.3102 -1.9775  0.4734
 3560SOL     OW10995   2.565   1.013   3.858  0.3504  0.4852 -0.0568
 3560SOL    HW110996   2.494   0.984   3.801 -1.1018  3.0882  0.2736
 3560SOL    HW210997   2.606   1.085   3.809  2.9856 -1.1044 -0.3365
 3561SOL     OW10998   0.347   1.170   2.059  0.3777  0.0063  0.2872
 3561SOL    HW110999   0.400   1.136   2.131 -0.6614 -0.7140  0.7430
 3561SOL    HW211000   0.256   1.157   2.088 -0.0577  0.1902 -0.9368
 3562SOL     OW11001   4.071   0.853   1.084  0.1998  0.1346 -0.1923
 3562SOL    HW111002   4.112   0.934   1.111 -2.0887  1.2047  0.3093
 3562SOL    HW211003   4.030   0.874   1.000 -3.1354  0.5988  1.3867
 3563SOL     OW11004   0.052   1.323   4.214  0.0503 -0.0036  0.1302
 3563SOL    HW111005   0.104   1.363   4.284 -0.6218 -0.1077  0.6989
 3563SOL    HW211006   0.017   1.398   4.165  1.0540  0.0653 -0.5092
 3564SOL     OW11007   5.211   0.622   1.649  0.0542 -0.0677  0.0011
 3564SOL    HW111008   5.173   0.611   1.736 -3.0045 -0.3310 -1.2605
 3564SOL    HW211009   5.210   0.717   1.634 -1.1601 -0.1366 -0.4291
 3565SOL     OW11010   4.348   1.631   5.430 -0.0987  0.6122 -0.1222
 3565SOL    HW111011   4.338   1.587   5.345 -1.7182  0.3951  0.1596
 3565SOL    HW211012   4.281   1.699   5.430  1.1262  1.8760  0.2437
 3566SOL     OW11013   4.502   3.693   5.150  0.3179 -0.1336 -0.3351
 3566SOL    HW111014   4.506   3.598   5.160  0.3831  0.0039  1.0218
 3566SOL    HW211015   4.484   3.706   5.057 -3.7300 -1.5647  0.0799
 3567SOL     OW11016   0.299   1.879   1.024 -0.3613  0.5675  0.0264
 3567SOL    HW111017   0.359   1.952   1.041 -0.7201  1.1031 -0.9184
 3567SOL    HW211018   0.274   1.889   0.932  0.7935 -1.6693 -0.6011
 3568SOL     OW11019   3.586   4.588   3.702 -0.3329  0.0726  0.7892
 3568SOL    HW111020   3.588   4.578   3.607  2.2202  0.4568  0.7400
 3568SOL    HW211021   3.533   4.514   3.733 -0.8766 -0.2782 -0.8739
 3569SOL     OW11022   3.418   1.625   4.581  0.1266 -0.0908 -0.1673
 3569SOL    HW111023   3.381   1.543   4.614  0.0352 -0.0216 -0.0969
 3569SOL    HW211024   3.367   1.694   4.625  1.0883  0.0227  0.8080
 3570SOL     OW11025   2.778   3.697   4.840 -0.2351  0.2813 -0.9038
 3570SOL    HW111026   2.824   3.650   4.909 -0.3786  0.4982 -0.6623
 3570SOL    HW211027   2.694   3.651   4.832  0.1071 -0.2518 -1.4950
 3571SOL     OW11028   5.241   0.591   2.239  0.2945 -0.0434 -0.0160
 3571SOL    HW111029   5.233   0.601   2.145  1.9020  1.2074 -0.0610
 3571SOL    HW211030   5.263   0.678   2.271  2.0364 -0.8908  1.2441
 3572SOL     OW11031   0.251   1.975   3.502  0.1386 -0.2143 -0.4568
 3572SOL    HW111032   0.256   1.915   3.427  1.9093 -0.6566 -0.0296
 3572SOL    HW211033   0.338   2.017   3.505 -0.2063  0.4557  0.8072
 3573SOL     OW11034   0.646   0.020   0.773 -0.0359  0.0558 -0.1952
 3573SOL    HW111035   0.621   0.100   0.728  1.6334 -0.1874 -1.6571
 3573SOL    HW211036   0.663  -0.043   0.703  1.6407 -0.6605  0.7954
 3574SOL     OW11037   0.242   1.993   1.390 -0.9271  0.1122  0.0433
 3574SOL    HW111038   0.165   1.976   1.336 -1.6219 -0.2074  1.0992
 3574SOL    HW211039   0.212   1.978   1.480  0.2252  0.5086  0.5154
 3575SOL     OW11040   4.225   2.363   0.105 -0.0794 -0.6141 -0.1721
 3575SOL    HW111041   4.307   2.412   0.093  0.8999 -1.9794  0.7179
 3575SOL    HW211042   4.252   2.278   0.138 -1.7748 -1.6677 -1.3475
 3576SOL     OW11043   5.160   4.346   1.068 -0.2336  0.0043 -0.0959
 3576SOL    HW111044   5.224   4.417   1.058 -1.9992  1.6565 -0.1690
 3576SOL    HW211045   5.128   4.329   0.980 -3.1149  2.4038  0.3251
 3577SOL     OW11046   0.275   1.372   0.883 -0.0384  0.0057  0.8149
 3577SOL    HW111047   0.320   1.446   0.843 -1.2300  0.8961  1.0579
 3577SOL    HW211048   0.238   1.408   0.964  0.7390 -1.2778  1.7729
 3578SOL     OW11049   2.422   2.098   2.813  0.2683 -0.2443  0.0986
 3578SOL    HW111050   2.494   2.037   2.793  0.2299 -0.0443 -0.6686
 3578SOL    HW211051   2.383   2.062   2.892 -0.0261 -1.4804 -0.5726
 3579SOL     OW11052   4.146   2.449   3.658  0.0115  0.1307  0.0308
 3579SOL    HW111053   4.177   2.539   3.648  0.4875 -0.0875 -0.4764
 3579SOL    HW211054   4.054   2.458   3.682  0.6746  0.8271  2.6013
 3580SOL     OW11055   2.670   2.361   4.129 -0.2298 -0.4435 -0.2752
 3580SOL    HW111056   2.728   2.338   4.201 -1.6638  1.3980  1.5823
 3580SOL    HW211057   2.697   2.450   4.103 -0.2683 -0.7593 -1.4779
 3581SOL     OW11058   2.232   2.732   1.475  0.2458  0.3919  0.1063
 3581SOL    HW111059   2.249   2.656   1.421 -0.8487  1.0380 -1.2143
 3581SOL    HW211060   2.152   2.770   1.439 -0.3648  1.0362  1.9949
 3582SOL     OW11061   2.419   5.018   2.774  0.2884 -0.4567 -0.1388
 3582SOL    HW111062   2.481   4.944   2.769  1.8298  0.6991  0.8067
 3582SOL    HW211063   2.425   5.059   2.688 -1.1122 -1.7995 -0.9164
 3583SOL     OW11064   1.481   0.746   2.761  0.1775 -0.2791 -0.5220
 3583SOL    HW111065   1.532   0.675   2.722  1.2225  1.0527 -1.6949
 3583SOL    HW211066   1.525   0.765   2.843  0.8377  0.0217 -0.9378
 3584SOL     OW11067   3.689   2.979   5.219  0.1881 -0.1895 -0.3013
 3584SOL    HW111068   3.742   3.041   5.269 -1.0779 -0.1645  1.0711
 3584SOL    HW211069   3.729   2.894   5.238 -0.4360 -0.2153  1.0354
 3585SOL     OW11070   4.006   0.636   1.441  0.3489  0.2268 -0.6593
 3585SOL    HW111071   4.046   0.720   1.465 -0.5173  0.8651 -1.3741
 3585SOL    HW211072   4.070   0.570   1.468  0.3423  0.9990  1.4713
 3586SOL     OW11073   0.040   2.532   5.428 -0.5343  0.6588  0.7483
 3586SOL    HW111074   0.066   2.616   5.466  0.7495 -0.2236  1.9632
 3586SOL    HW211075   0.114   2.507   5.372 -0.7651  0.2029  0.6367
 3587SOL     OW11076   1.469   5.236   3.627  0.1808 -0.0221 -0.4506
 3587SOL    HW111077   1.464   5.176   3.552  1.7379 -0.1297 -0.4994
 3587SOL    HW211078   1.552   5.282   3.615  1.4851 -1.4389  2.2424
 3588SOL     OW11079   0.319   2.764   3.481  0.5408 -0.6508 -0.3478
 3588SOL    HW111080   0.291   2.678   3.511  1.8313 -0.6743  0.8840
 3588SOL    HW211081   0.413   2.767   3.499  0.6055  0.8651 -0.7511
 3589SOL     OW11082   2.748   3.738   3.440 -0.5213  0.1742 -0.2374
 3589SOL    HW111083   2.761   3.678   3.367 -1.5717 -0.3346 -0.0157
 3589SOL    HW211084   2.719   3.820   3.400  0.6193  0.4682 -0.5126
 3590SOL     OW11085   3.906   1.628   2.569 -0.4887 -0.1883 -0.1970
 3590SOL    HW111086   3.965   1.704   2.568 -1.1907  0.3782 -0.0327
 3590SOL    HW211087   3.884   1.617   2.662  1.2618 -1.9414  0.0815
 3591SOL     OW11088   2.695   3.667   1.001  0.1905 -0.3727  0.4504
 3591SOL    HW111089   2.613   3.623   0.977  0.0514 -0.5266  1.1903
 3591SOL    HW211090   2.753   3.651   0.927 -0.5572  0.0315 -0.2387
 3592SOL     OW11091   4.606   1.655   2.110  0.0180 -0.3503  0.5202
 3592SOL    HW111092   4.610   1.575   2.059  0.2063 -0.6356  0.9769
 3592SOL    HW211093   4.532   1.643   2.169  1.3588 -1.1247  2.1135
 3593SOL     OW11094   0.071   4.531   4.043  0.1031  0.0111 -0.2748
 3593SOL    HW111095   0.156   4.574   4.037 -0.2923  0.6236 -1.7765
 3593SOL    HW211096   0.013   4.582   3.987 -1.3435 -0.2424  0.8993
 3594SOL     OW11097   0.585   3.889   3.369  0.2207  0.0028 -0.8155
 3594SOL    HW111098   0.667   3.854   3.402  1.3540  2.5796 -0.6844
 3594SOL    HW211099   0.609   3.970   3.325 -2.3110  1.0906 -0.3769
 3595SOL     OW11100   4.629   5.052   1.780 -0.4331 -0.0076 -0.2897
 3595SOL    HW111101   4.673   4.974   1.745 -0.7319  0.9207 -2.9690
 3595SOL    HW211102   4.699   5.117   1.789  0.0100 -0.7524  2.9218
 3596SOL     OW11103   3.798   3.470   3.312 -0.2226 -0.1052  0.3071
 3596SOL    HW111104   3.885   3.431   3.320  0.6534  0.7618 -3.2168
 3596SOL    HW211105   3.750   3.411   3.254 -0.7964  1.0715 -0.4707
 3597SOL     OW11106   3.061   1.662   1.176 -0.0950 -0.6795  0.0292
 3597SOL    HW111107   3.047   1.751   1.209 -0.7849 -0.8388  0.1848
 3597SOL    HW211108   3.099   1.675   1.089  1.1511 -0.2519  0.6164
 3598SOL     OW11109   0.369   5.490   0.457 -0.4523 -0.4831  0.0373
 3598SOL    HW111110   0.346   5.411   0.407 -2.4661  0.8722 -1.3181
 3598SOL    HW211111   0.293   5.504   0.514 -0.6681  1.1566 -0.6301
 3599SOL     OW11112   1.034   0.493   1.291  0.4154 -0.0010  0.1150
 3599SOL    HW111113   1.095   0.477   1.219  0.1454  0.8536 -0.3188
 3599SOL    HW211114   0.947   0.488   1.252  0.0543 -2.9093  1.0519
 3600SOL     OW11115   5.280   3.283   3.221  0.1114  0.5609 -0.4362
 3600SOL    HW111116   5.195   3.324   3.232 -2.1747 -3.5441 -0.8098
 3600SOL    HW211117   5.286   3.263   3.128  1.7248  1.1428 -0.4913
 3601SOL     OW11118   2.772   4.086   0.559  0.4801 -0.0712 -0.0741
 3601SOL    HW111119   2.716   4.019   0.521  0.9566 -0.0066 -0.9278
 3601SOL    HW211120   2.783   4.060   0.650  3.4223 -3.0944 -1.0897
 3602SOL     OW11121   4.107   4.079   4.427 -0.8371  0.4470  0.1008
 3602SOL    HW111122   4.093   4.160   4.475 -1.7897  0.7234 -0.6143
 3602SOL    HW211123   4.082   4.010   4.489 -1.3217  0.7632  0.2621
 3603SOL     OW11124   4.959   1.740   4.586 -0.1369  0.0179  0.0111
 3603SOL    HW111125   5.047   1.768   4.609  0.2384 -2.6302  2.3005
 3603SOL    HW211126   4.969   1.690   4.505  0.5703 -0.6631  0.5078
 3604SOL     OW11127   0.871   1.739   3.092  0.1366 -0.3574  0.1799
 3604SOL    HW111128   0.821   1.820   3.101 -0.5787 -0.7803  0.0212
 3604SOL    HW211129   0.889   1.731   2.998  0.5075 -0.2097  0.2348
 3605SOL     OW11130   2.807   4.246   2.070 -0.0976  0.1092 -0.8480
 3605SOL    HW111131   2.785   4.169   2.122 -0.2075 -0.0384 -1.1085
 3605SOL    HW211132   2.901   4.239   2.054  0.1536  0.7283  0.2491
 3606SOL     OW11133   3.057   3.272   3.481  0.3749 -0.0128 -0.0744
 3606SOL    HW111134   3.131   3.221   3.516  0.2604  0.4034  0.8009
 3606SOL    HW211135   3.018   3.313   3.558  0.2788  1.1666 -0.7363
 3607SOL     OW11136   3.267   4.425   4.014 -0.3586 -0.2114 -0.4348
 3607SOL    HW111137   3.307   4.389   3.935  0.5651 -0.4861  0.1491
 3607SOL    HW211138   3.334   4.483   4.050 -0.5697 -0.4963  0.4278
 3608SOL     OW11139   3.372   1.183   1.716  0.1758 -0.1970  0.3311
 3608SOL    HW111140   3.373   1.189   1.812  0.1203 -2.2270  0.5112
 3608SOL    HW211141   3.355   1.091   1.699  0.0017  0.1725 -1.6572
 3609SOL     OW11142   1.403   0.278   4.173 -0.6902 -0.4808  0.3780
 3609SOL    HW111143   1.444   0.229   4.245  2.4068  1.4755  0.1319
 3609SOL    HW211144   1.476   0.322   4.130 -2.9095  1.6117 -1.4994
 3610SOL     OW11145   4.895   0.090   4.041  0.2795  0.0937 -0.6274
 3610SOL    HW111146   4.872   0.117   4.130 -0.5165  0.6468 -0.9952
 3610SOL    HW211147   4.935   0.167   4.002  1.0699 -0.2939 -0.6051
 3611SOL     OW11148   3.964   3.704   1.044  0.5988  0.0541  0.8997
 3611SOL    HW111149   3.961   3.709   0.949 -0.1850 -1.4821  0.8217
 3611SOL    HW211150   3.971   3.795   1.073 -0.3775  0.6267 -0.5805
 3612SOL     OW11151   4.907   2.316   4.037  0.1610 -0.3951 -0.0619
 3612SOL    HW111152   4.840   2.327   4.105  2.6848  1.2817  2.3823
 3612SOL    HW211153   4.899   2.394   3.982  0.4096  0.0943  0.5760
 3613SOL     OW11154   3.517   2.819   1.219 -0.9323 -0.0596  0.1541
 3613SOL    HW111155   3.506   2.726   1.197  2.5212 -0.2241 -1.5887
 3613SOL    HW211156   3.450   2.864   1.169 -1.9373 -1.5050  0.1282
 3614SOL     OW11157   4.304   1.690   3.667 -0.0942 -0.1476 -0.4485
 3614SOL    HW111158   4.276   1.771   3.622 -1.2327 -0.1328  0.2361
 3614SOL    HW211159   4.390   1.670   3.629 -1.4081 -0.7424 -3.4525
 3615SOL     OW11160   4.295   2.652   1.382 -0.1071 -0.4304  0.1797
 3615SOL    HW111161   4.199   2.651   1.385 -0.1164 -0.0516  0.0856
 3615SOL    HW211162   4.316   2.658   1.289 -0.0371  1.6822  0.2748
 3616SOL     OW11163   1.112   3.442   3.910 -0.2589  0.3429 -0.0005
 3616SOL    HW111164   1.034   3.389   3.898 -0.8082  1.1776 -0.2591
 3616SOL    HW211165   1.158   3.437   3.827 -0.6115  0.7269 -0.2252
 3617SOL     OW11166   2.500   5.342   4.186  0.1924 -0.2875 -0.3670
 3617SOL    HW111167   2.571   5.302   4.236  0.5269 -1.6166 -1.8265
 3617SOL    HW211168   2.471   5.273   4.126 -2.1806  0.3020  0.0213
 3618SOL     OW11169   5.544   4.701   2.009  0.2756 -0.3602  0.6448
 3618SOL    HW111170   5.617   4.713   1.948  0.3273 -1.9180  0.3498
 3618SOL    HW211171   5.485   4.774   1.991  1.1352  0.1776 -0.0466
 3619SOL     OW11172   2.050   2.602   1.016  0.1875 -0.0201  0.0051
 3619SOL    HW111173   2.069   2.518   1.057  1.4390 -0.4810 -1.4108
 3619SOL    HW211174   2.028   2.580   0.925  1.6737  1.2431 -0.7057
 3620SOL     OW11175   5.053   2.819   0.705  0.4257  0.1319  0.3340
 3620SOL    HW111176   5.064   2.839   0.612  1.7848 -0.5885  0.3284
 3620SOL    HW211177   5.065   2.903   0.749 -0.6926  0.5678 -0.1555
 3621SOL     OW11178   3.095   1.587   2.858  0.2406 -0.3740  0.0654
 3621SOL    HW111179   3.063   1.508   2.816  0.1820 -1.0038  1.2530
 3621SOL    HW211180   3.156   1.625   2.795 -0.7175 -0.6481 -1.0566
 3622SOL     OW11181   3.904   4.636   5.208 -0.3062 -0.4679 -0.7994
 3622SOL    HW111182   3.953   4.610   5.130 -1.5726  0.2277 -1.8604
 3622SOL    HW211183   3.819   4.594   5.199 -0.9426  0.6941 -0.4878
 3623SOL     OW11184   4.189   0.542   5.344 -0.5808  0.3721 -0.2199
 3623SOL    HW111185   4.244   0.608   5.303  1.2121 -1.3786 -0.8082
 3623SOL    HW211186   4.215   0.542   5.436 -0.5220  0.4314 -0.2366
 3624SOL     OW11187   1.295   0.904   1.812  0.6157  0.6046  0.4375
 3624SOL    HW111188   1.390   0.907   1.824  0.6520 -1.3457  1.0851
 3624SOL    HW211189   1.265   0.993   1.831  2.2243  1.0578  1.0049
 3625SOL     OW11190   3.820   0.627   2.065 -0.4569 -0.4242 -0.0408
 3625SOL    HW111191   3.816   0.619   1.970 -0.9451 -1.3227  0.0342
 3625SOL    HW211192   3.910   0.654   2.084 -0.2143 -0.7270 -0.7332
 3626SOL     OW11193   1.776   0.349   3.494  0.1006  0.0566 -0.3735
 3626SOL    HW111194   1.748   0.338   3.585  2.9550 -0.8195  0.5250
 3626SOL    HW211195   1.796   0.442   3.486 -1.6508  0.4310 -0.6214
 3627SOL     OW11196   1.474   1.624   2.480 -0.3572 -0.4654  0.0930
 3627SOL    HW111197   1.509   1.688   2.543 -1.4542 -0.2562  0.5087
 3627SOL    HW211198   1.487   1.539   2.522  0.0918 -0.4355  0.0235
 3628SOL     OW11199   0.671   0.168   1.569  0.3366  0.1597 -0.0711
 3628SOL    HW111200   0.686   0.250   1.523  0.0136 -0.4992 -1.4172
 3628SOL    HW211201   0.591   0.184   1.620  0.5980  0.8571  0.1253
 3629SOL     OW11202   1.107   2.040   1.296 -0.2721 -0.0518 -0.3052
 3629SOL    HW111203   1.062   1.993   1.226  0.6148 -0.1650 -0.8236
 3629SOL    HW211204   1.162   2.103   1.250  0.2618 -0.0708  0.2947
 3630SOL     OW11205   1.184   1.675   1.591  0.3051  1.1114 -0.2484
 3630SOL    HW111206   1.096   1.710   1.604 -0.0936  0.1711 -0.4043
 3630SOL    HW211207   1.229   1.742   1.539 -0.3617  1.5182 -0.3065
 3631SOL     OW11208   0.298   0.934   0.515  0.1246  0.0533  0.2288
 3631SOL    HW111209   0.222   0.905   0.565  1.3909 -0.1088  2.1372
 3631SOL    HW211210   0.323   1.017   0.555  1.5580 -0.3887  0.2997
 3632SOL     OW11211   5.442   2.070   0.739 -0.2433 -0.6017 -0.0528
 3632SOL    HW111212   5.512   2.125   0.703 -1.4909  1.8224  0.9887
 3632SOL    HW211213   5.390   2.045   0.663  0.7305 -0.9416 -0.6233
 3633SOL     OW11214   2.055   3.755   1.373  0.1387  0.0275  0.3196
 3633SOL    HW111215   2.084   3.843   1.346  1.3175 -0.1356  0.9590
 3633SOL    HW211216   1.969   3.770   1.413  0.4205  0.9430  0.6314
 3634SOL     OW11217   0.198   2.576   3.109 -0.2727 -0.7366 -0.5293
 3634SOL    HW111218   0.278   2.574   3.058  0.9939 -1.1722  1.3672
 3634SOL    HW211219   0.198   2.494   3.158 -0.4784  0.3913  1.4700
 3635SOL     OW11220   1.969   2.194   3.151 -0.3723 -0.4889 -0.6127
 3635SOL    HW111221   2.021   2.250   3.094  0.8115 -2.2863 -1.3802
 3635SOL    HW211222   1.962   2.111   3.103 -0.7284 -1.5245  1.1581
 3636SOL     OW11223   2.482   2.534   0.888  0.1113  0.0570  0.7885
 3636SOL    HW111224   2.566   2.489   0.883  0.4898  0.5841  2.0001
 3636SOL    HW211225   2.481   2.574   0.975 -1.6468 -0.4317  1.0458
 3637SOL     OW11226   3.190   3.661   5.514  0.8172  0.0610  0.6988
 3637SOL    HW111227   3.275   3.630   5.545  2.5938  1.1935 -2.5712
 3637SOL    HW211228   3.210   3.739   5.463 -1.9330 -0.5877 -1.6660
 3638SOL     OW11229   1.414   0.932   1.267 -0.3899 -0.0115  0.2422
 3638SOL    HW111230   1.366   0.906   1.188 -1.0582  0.6522  0.4166
 3638SOL    HW211231   1.407   0.857   1.326 -0.0943 -0.4165 -0.2260
 3639SOL     OW11232   5.474   4.264   4.084 -0.3125  0.2790 -0.4608
 3639SOL    HW111233   5.494   4.358   4.087  0.0849  0.1840  1.6164
 3639SOL    HW211234   5.493   4.233   4.173 -0.2079 -1.8311 -1.1721
 3640SOL     OW11235   2.881   4.218   4.996  0.1000 -0.3170  0.7987
 3640SOL    HW111236   2.854   4.234   5.087  1.0869  1.0317  0.8897
 3640SOL    HW211237   2.877   4.123   4.986 -2.5735 -0.3485  1.4303
 3641SOL     OW11238   2.272   3.822   0.848 -0.7761 -0.1796  0.2468
 3641SOL    HW111239   2.338   3.795   0.785 -0.8081 -1.0423  0.5691
 3641SOL    HW211240   2.189   3.814   0.801 -0.9060 -1.9011  0.7110
 3642SOL     OW11241   4.574   4.172   1.367  0.1221  0.3731  0.0068
 3642SOL    HW111242   4.548   4.107   1.301 -3.3753  1.4991  0.0572
 3642SOL    HW211243   4.591   4.121   1.446 -3.4838 -0.6103  0.3191
 3643SOL     OW11244   1.411   4.898   4.287 -0.0175  0.0153 -0.2997
 3643SOL    HW111245   1.476   4.947   4.236  1.0684 -0.6374  0.4205
 3643SOL    HW211246   1.406   4.944   4.370 -0.2854 -0.0915 -0.2547
 3644SOL     OW11247   1.576   0.081   4.006  0.2183  0.0463 -0.4796
 3644SOL    HW111248   1.645   0.098   4.069  0.3427  1.0078 -0.8548
 3644SOL    HW211249   1.495   0.097   4.054  0.2884 -0.0476 -0.3305
 3645SOL     OW11250   5.299   2.408   0.623 -0.3937 -0.3882 -0.4248
 3645SOL    HW111251   5.245   2.425   0.700 -0.3580 -1.1435 -0.2333
 3645SOL    HW211252   5.383   2.450   0.643 -0.5785 -0.0696 -0.3075
 3646SOL     OW11253   1.629   1.112   0.884  0.1229 -0.0237 -0.0236
 3646SOL    HW111254   1.694   1.071   0.941  0.4005  1.4765  0.7958
 3646SOL    HW211255   1.578   1.039   0.849  0.3714 -1.0426  1.6360
 3647SOL     OW11256   2.451   4.775   1.319  0.1102 -0.6268  0.1434
 3647SOL    HW111257   2.439   4.702   1.258 -1.0696 -0.1571 -0.2188
 3647SOL    HW211258   2.466   4.733   1.404 -1.5043 -1.3043  0.1203
 3648SOL     OW11259   2.211   1.393   2.216  0.0174  0.1999 -0.0723
 3648SOL    HW111260   2.143   1.405   2.150  0.6825  0.5290 -0.7047
 3648SOL    HW211261   2.293   1.393   2.167  0.6123  1.5537  0.8573
 3649SOL     OW11262   1.398   0.120   3.747 -0.3496 -0.1576 -0.1473
 3649SOL    HW111263   1.386   0.196   3.690  1.6094 -0.1501 -0.6209
 3649SOL    HW211264   1.323   0.124   3.807 -1.4802  0.8681 -1.5405
 3650SOL     OW11265   2.533   0.352   0.243  0.0376 -0.0630 -0.1077
 3650SOL    HW111266   2.588   0.391   0.311  1.8405 -1.7226 -0.5222
 3650SOL    HW211267   2.560   0.395   0.162 -1.0872  0.8780 -0.0143
 3651SOL     OW11268   2.328   3.895   3.088 -0.2600 -0.1341 -0.5885
 3651SOL    HW111269   2.352   3.817   3.138  1.2806 -0.7656 -2.1950
 3651SOL    HW211270   2.344   3.968   3.147  4.0776 -0.6373 -0.8474
 3652SOL     OW11271   2.939   3.543   5.438 -0.2169 -0.2492  0.8520
 3652SOL    HW111272   2.887   3.620   5.416  0.3205 -0.5046 -1.6036
 3652SOL    HW211273   3.027   3.576   5.454  0.6700 -0.4537 -2.7990
 3653SOL     OW11274   5.198   0.826   5.077 -0.3658 -0.3347 -0.3212
 3653SOL    HW111275   5.157   0.755   5.127  1.0468 -0.0939  1.2441
 3653SOL    HW211276   5.180   0.905   5.128 -0.3912  0.1957 -1.1287
 3654SOL     OW11277   5.379   4.333   2.343  0.0041  0.1987 -0.3142
 3654SOL    HW111278   5.349   4.242   2.336  0.5816 -0.0740  0.4992
 3654SOL    HW211279   5.445   4.331   2.413  1.2606  0.9351 -1.4189
 3655SOL     OW11280   4.613   1.481   3.865 -0.5118 -1.0206  0.1939
 3655SOL    HW111281   4.685   1.421   3.885 -0.0821 -0.2508  1.0120
 3655SOL    HW211282   4.534   1.428   3.874 -0.2803 -1.0322  2.8659
 3656SOL     OW11283   2.300   2.307   0.231  0.1948 -0.2645  0.2496
 3656SOL    HW111284   2.281   2.328   0.322 -0.7940 -0.1480  0.0318
 3656SOL    HW211285   2.229   2.348   0.182  0.8762 -0.0630 -0.6065
 3657SOL     OW11286   4.267   2.210   3.586 -0.1754 -0.2872  0.2482
 3657SOL    HW111287   4.211   2.288   3.591 -1.7943 -1.0895 -2.9293
 3657SOL    HW211288   4.356   2.244   3.596 -0.9622  1.5494  1.6349
 3658SOL     OW11289   3.548   1.593   0.671 -0.7241  0.3349 -0.0077
 3658SOL    HW111290   3.478   1.605   0.607  0.0030 -0.2051 -0.9514
 3658SOL    HW211291   3.538   1.502   0.700  1.2531 -0.7410 -2.3288
 3659SOL     OW11292   0.689   0.845   0.134 -0.1422 -0.2724  0.2584
 3659SOL    HW111293   0.629   0.878   0.201 -0.0326  1.0703 -0.2876
 3659SOL    HW211294   0.774   0.841   0.178  0.1580  1.6545 -0.0625
 3660SOL     OW11295   0.431   1.757   2.749  0.4035 -0.1672 -0.1128
 3660SOL    HW111296   0.447   1.850   2.765  1.0358 -0.3462  0.3307
 3660SOL    HW211297   0.337   1.746   2.763  0.4932  0.2113  0.8197
 3661SOL     OW11298   5.190   5.279   0.706  0.7067  0.4082 -0.0507
 3661SOL    HW111299   5.171   5.300   0.798  0.8284  0.8537 -0.1286
 3661SOL    HW211300   5.236   5.195   0.710  1.2262  0.7110  0.3341
 3662SOL     OW11301   3.133   2.436   2.192 -0.6531  0.2466 -0.2983
 3662SOL    HW111302   3.063   2.476   2.140 -2.2273  0.1659  1.6130
 3662SOL    HW211303   3.115   2.464   2.282  0.9145 -1.0103  0.4636
 3663SOL     OW11304   3.636   1.198   2.336 -0.2750 -0.1921  0.5390
 3663SOL    HW111305   3.548   1.228   2.360 -0.3546 -1.4660  1.9308
 3663SOL    HW211306   3.664   1.260   2.268 -1.4742  1.3798  1.4163
 3664SOL     OW11307   1.564   4.568   3.391 -0.5895  0.2824 -0.0003
 3664SOL    HW111308   1.510   4.500   3.431 -0.8460  1.0541  0.9839
 3664SOL    HW211309   1.627   4.520   3.337 -0.0435 -0.8056  1.5613
 3665SOL     OW11310   2.610   3.539   3.185 -0.1823  0.2172  0.1691
 3665SOL    HW111311   2.592   3.446   3.169 -0.4023  0.4672 -1.1560
 3665SOL    HW211312   2.704   3.543   3.200 -0.3020 -0.3304  1.1188
 3666SOL     OW11313   4.834   1.985   3.203 -0.7359  0.3369  0.1379
 3666SOL    HW111314   4.799   2.041   3.273 -1.3654  0.6501 -0.4161
 3666SOL    HW211315   4.775   1.910   3.201 -0.7184  0.3290 -0.0563
 3667SOL     OW11316   5.254   4.708   3.224  0.3422 -0.1071  0.2218
 3667SOL    HW111317   5.309   4.784   3.245 -0.1603  0.1802  0.5321
 3667SOL    HW211318   5.225   4.724   3.134  1.0640 -0.4498 -0.0806
 3668SOL     OW11319   3.806   3.886   3.942 -0.0778  0.5535  0.3330
 3668SOL    HW111320   3.714   3.892   3.917  0.6937  1.7748 -2.6375
 3668SOL    HW211321   3.820   3.962   3.999 -0.8238  0.5469  0.5393
 3669SOL     OW11322   4.082   2.130   2.814  0.1184  0.3198  0.4276
 3669SOL    HW111323   3.992   2.126   2.847  0.2858 -0.5963  0.7833
 3669SOL    HW211324   4.114   2.041   2.821  0.7422  0.4470 -0.5958
 3670SOL     OW11325   5.199   2.733   5.516 -0.4480  0.1796 -0.4277
 3670SOL    HW111326   5.116   2.688   5.499 -0.0869 -0.0240 -1.7479
 3670SOL    HW211327   5.267   2.670   5.491  0.0791  0.8400 -0.7043
 3671SOL     OW11328   2.131   0.429   0.153 -0.0893 -0.3900  0.1621
 3671SOL    HW111329   2.146   0.337   0.133 -1.3773 -0.2134 -1.9118
 3671SOL    HW211330   2.188   0.477   0.092 -0.0949  0.2011  0.6040
 3672SOL     OW11331   4.889   1.614   4.052  0.0184  0.4052 -0.2074
 3672SOL    HW111332   4.943   1.593   3.976  2.3577 -2.3290  1.9670
 3672SOL    HW211333   4.835   1.536   4.066 -1.0937  1.2448  0.4221
 3673SOL     OW11334   1.398   0.221   0.930 -0.8224 -0.1929  0.4221
 3673SOL    HW111335   1.473   0.265   0.971 -0.1391 -0.6988 -0.2557
 3673SOL    HW211336   1.327   0.231   0.994 -1.7699  4.7792 -0.9384
 3674SOL     OW11337   3.481   4.878   3.558  0.5096  0.3233 -0.2162
 3674SOL    HW111338   3.426   4.924   3.620 -1.0767 -0.3015 -1.1046
 3674SOL    HW211339   3.565   4.924   3.561  0.1580  0.9110  1.6204
 3675SOL     OW11340   2.932   3.468   2.741 -0.3769  0.0349 -0.0039
 3675SOL    HW111341   2.897   3.552   2.712 -0.7331 -0.7339 -2.0094
 3675SOL    HW211342   2.861   3.429   2.792 -0.7789  0.3379 -0.3212
 3676SOL     OW11343   0.128   3.434   3.190 -0.0016  0.3177 -0.0684
 3676SOL    HW111344   0.056   3.378   3.218  0.2429  0.4392  0.8353
 3676SOL    HW211345   0.196   3.421   3.256  0.0855  1.6264  0.1398
 3677SOL     OW11346   3.590   5.404   5.002 -0.3767  0.6016  0.6076
 3677SOL    HW111347   3.587   5.367   5.091  0.9439  0.9940  0.8402
 3677SOL    HW211348   3.659   5.470   5.006 -0.9661  1.3040 -0.4756
 3678SOL     OW11349   2.353   2.638   0.684  0.1753 -0.0648  0.0371
 3678SOL    HW111350   2.393   2.597   0.760  1.1686  0.2386 -0.3068
 3678SOL    HW211351   2.416   2.705   0.657 -0.4541  0.2558 -0.6661
 3679SOL     OW11352   1.028   4.761   4.426  0.1017  0.4669 -0.3083
 3679SOL    HW111353   0.986   4.848   4.423  0.3370  0.6032  0.2810
 3679SOL    HW211354   1.031   4.734   4.334 -0.9837  0.5921 -0.4037
 3680SOL     OW11355   5.058   0.322   2.111 -0.0872 -0.4326 -0.4070
 3680SOL    HW111356   5.009   0.321   2.194  0.5232  2.2969  0.0897
 3680SOL    HW211357   5.149   0.327   2.137  0.3310 -2.4335 -1.3226
 3681SOL     OW11358   1.135   2.088   4.434  0.6626  0.3834  0.5561
 3681SOL    HW111359   1.196   2.126   4.371 -0.4453 -0.6234 -1.1951
 3681SOL    HW211360   1.115   2.160   4.495  2.0754  1.2621  0.0216
 3682SOL     OW11361   1.338   1.619   3.236  0.0711 -0.0849 -0.1233
 3682SOL    HW111362   1.303   1.532   3.217 -0.5082 -0.6218  2.9091
 3682SOL    HW211363   1.278   1.679   3.192 -1.2994 -1.1515  0.2281
 3683SOL     OW11364   2.911   0.073   4.108 -0.1532 -0.0640 -0.3251
 3683SOL    HW111365   2.928  -0.021   4.105  1.3820  0.2184 -1.7700
 3683SOL    HW211366   2.856   0.091   4.031 -0.0431  0.2914 -0.3258
 3684SOL     OW11367   3.623   1.246   1.897 -0.2831  0.0321  0.1668
 3684SOL    HW111368   3.678   1.281   1.968 -0.5105  0.6484  0.0435
 3684SOL    HW211369   3.534   1.255   1.929 -0.5796  2.6424 -1.1606
 3685SOL     OW11370   4.592   0.562   0.834  0.0674 -0.2233 -0.0774
 3685SOL    HW111371   4.572   0.646   0.792  0.0710 -0.1529  0.0609
 3685SOL    HW211372   4.514   0.509   0.819 -0.8177  0.4958  1.6132
 3686SOL     OW11373   2.533   4.321   3.502  0.0938  1.0455  0.4069
 3686SOL    HW111374   2.539   4.254   3.571 -2.1132 -0.9279 -1.1782
 3686SOL    HW211375   2.536   4.404   3.550  2.7007 -0.0779  2.4897
 3687SOL     OW11376   5.262   2.032   3.274  0.0766 -0.1446 -0.1270
 3687SOL    HW111377   5.345   2.069   3.242 -0.3939  0.4332 -0.7246
 3687SOL    HW211378   5.232   2.094   3.340 -0.0389 -0.1782 -0.1474
 3688SOL     OW11379   0.035   5.180   2.591 -0.2545 -0.3080 -0.5400
 3688SOL    HW111380  -0.044   5.161   2.642 -0.1904 -1.1513 -0.7450
 3688SOL    HW211381   0.009   5.166   2.500  0.1845 -0.8166 -0.5926
 3689SOL     OW11382   4.619   0.006   4.832 -0.0095  0.5575 -0.3678
 3689SOL    HW111383   4.600   0.025   4.740  1.5610  1.6968 -0.4846
 3689SOL    HW211384   4.691  -0.057   4.829 -2.3715 -2.4497  0.0980
 3690SOL     OW11385   0.924   3.548   2.925 -0.3845 -0.4588  0.1528
 3690SOL    HW111386   0.887   3.594   2.850 -2.7120  0.9366  1.9817
 3690SOL    HW211387   0.883   3.461   2.923 -0.3253 -0.4742 -0.2796
 3691SOL     OW11388   1.262   4.940   3.797 -0.2141  0.0968 -0.1589
 3691SOL    HW111389   1.315   5.002   3.847 -1.6915  0.5895  0.8642
 3691SOL    HW211390   1.220   4.993   3.730 -0.2649 -0.0891 -0.2752
 3692SOL     OW11391   4.424   5.115   1.960  0.2045  0.6718 -0.2735
 3692SOL    HW111392   4.429   5.203   1.923 -1.2197  1.0646  0.3840
 3692SOL    HW211393   4.491   5.065   1.914  2.6802  2.6575  0.9191
 3693SOL     OW11394   0.073   2.395   1.433 -0.1804  0.3573  0.4049
 3693SOL    HW111395   0.043   2.478   1.397 -0.8235 -0.0808 -0.1135
 3693SOL    HW211396   0.091   2.340   1.357 -0.6278 -0.2661  0.7287
 3694SOL     OW11397   2.098   2.861   0.308  0.0515  0.6062  0.4706
 3694SOL    HW111398   2.053   2.922   0.250  1.2846  1.0036 -0.0995
 3694SOL    HW211399   2.114   2.783   0.255  2.3013  1.4401 -0.1817
 3695SOL     OW11400   4.845   0.860   3.796 -0.6208 -0.4986 -0.1577
 3695SOL    HW111401   4.910   0.840   3.863 -0.3817 -0.5024 -0.3904
 3695SOL    HW211402   4.877   0.940   3.754 -1.0848 -0.1542  0.1369
 3696SOL     OW11403   2.536   5.369   1.907 -0.1709  0.1649  0.0424
 3696SOL    HW111404   2.614   5.410   1.868 -0.6804  0.3413 -0.8102
 3696SOL    HW211405   2.571   5.300   1.963  0.6657  1.1567  0.7777
 3697SOL     OW11406   0.556   0.212   1.993  0.2306  0.2695 -0.8082
 3697SOL    HW111407   0.520   0.194   1.906  2.1364  0.0955 -1.6086
 3697SOL    HW211408   0.576   0.305   1.991 -2.0302  0.8652  0.4081
 3698SOL     OW11409   0.170   3.836   4.941  0.3907 -0.0428  0.1222
 3698SOL    HW111410   0.085   3.865   4.973 -0.5207 -0.8299 -1.4825
 3698SOL    HW211411   0.170   3.741   4.953  1.8688  0.1172  1.9133
 3699SOL     OW11412   4.673   0.110   3.077 -0.6382  0.4344 -0.1458
 3699SOL    HW111413   4.745   0.135   3.135 -0.8096 -0.5339  0.5216
 3699SOL    HW211414   4.657   0.187   3.023 -0.0304  1.1368  0.6501
 3700SOL     OW11415   4.538   5.265   0.350 -0.2534  0.5437  0.3439
 3700SOL    HW111416   4.633   5.257   0.341 -0.3102 -0.6952  0.6333
 3700SOL    HW211417   4.524   5.269   0.445 -0.4914  0.8081  0.2985
 3701SOL     OW11418   0.947   4.691   3.762 -0.2968  0.7901  0.3222
 3701SOL    HW111419   0.934   4.743   3.682  0.1636  1.4281  0.6571
 3701SOL    HW211420   0.947   4.755   3.833 -1.0740  0.1909  0.8887
 3702SOL     OW11421   3.353   2.462   1.514  0.3265 -0.3231 -0.2961
 3702SOL    HW111422   3.281   2.525   1.522 -0.3516 -1.1721  0.7074
 3702SOL    HW211423   3.397   2.485   1.433 -0.7369  0.5830 -0.6424
 3703SOL     OW11424   5.304   4.619   4.544  0.1009  0.2847 -0.3784
 3703SOL    HW111425   5.321   4.674   4.621  0.1729  1.1565 -1.0001
 3703SOL    HW211426   5.236   4.558   4.573 -0.0682  0.7820  0.2947
 3704SOL     OW11427   5.099   1.264   3.918  0.4792  0.6605  0.1946
 3704SOL    HW111428   5.187   1.230   3.900  0.7529  0.3299  1.9596
 3704SOL    HW211429   5.090   1.258   4.013 -0.6328  2.7331  0.2833
 3705SOL     OW11430   3.891   2.775   4.901  0.8316 -0.4024  0.5744
 3705SOL    HW111431   3.906   2.869   4.896  1.6704 -0.5561  0.0651
 3705SOL    HW211432   3.945   2.745   4.975 -0.6405 -0.2709  1.7652
 3706SOL     OW11433   3.151   4.145   2.454 -0.5205 -0.0091 -0.2127
 3706SOL    HW111434   3.075   4.195   2.485  0.2765  0.0288  1.8369
 3706SOL    HW211435   3.225   4.204   2.468  0.1098 -0.7282 -0.4724
 3707SOL     OW11436   3.757   2.572   0.729  0.3589 -0.1657 -0.9674
 3707SOL    HW111437   3.741   2.595   0.821  2.3104 -1.3146 -0.2861
 3707SOL    HW211438   3.751   2.655   0.683  0.3633  0.5988  0.3517
 3708SOL     OW11439   4.321   2.196   5.073  0.0357 -0.3164  0.2196
 3708SOL    HW111440   4.241   2.147   5.057  0.5713 -1.6154  1.3137
 3708SOL    HW211441   4.391   2.134   5.054  0.8537  1.1392 -1.8525
 3709SOL     OW11442   2.316   4.964   2.413 -0.0837 -0.2427 -0.1444
 3709SOL    HW111443   2.233   4.983   2.455  0.1441  3.4715 -1.0752
 3709SOL    HW211444   2.380   5.019   2.459  1.5111 -1.5028 -0.7368
 3710SOL     OW11445   1.660   3.418   3.296  0.4269  0.7556  1.0839
 3710SOL    HW111446   1.591   3.352   3.290 -0.1807  1.2777  2.0234
 3710SOL    HW211447   1.732   3.382   3.244 -0.1239 -0.3400  1.0434
 3711SOL     OW11448   2.195   2.620   1.978  0.4161 -0.3606  0.4951
 3711SOL    HW111449   2.209   2.715   1.985  0.7014 -0.3421 -0.1667
 3711SOL    HW211450   2.169   2.607   1.887  1.5254 -1.0446  0.2473
 3712SOL     OW11451   5.217   1.378   3.108  0.2255  0.3878 -0.4422
 3712SOL    HW111452   5.202   1.450   3.046  1.3158  0.5538 -0.5476
 3712SOL    HW211453   5.286   1.411   3.166  1.3853 -0.8563 -1.0365
 3713SOL     OW11454   1.156   3.681   5.028  0.1317  0.0375  0.5356
 3713SOL    HW111455   1.129   3.625   5.101 -3.4621  0.8124 -0.0179
 3713SOL    HW211456   1.215   3.626   4.977 -0.3346 -1.9053  1.9513
 3714SOL     OW11457   1.414   2.787   3.666  0.2944 -0.4011 -0.3603
 3714SOL    HW111458   1.400   2.700   3.629 -1.3383 -0.6898  0.8040
 3714SOL    HW211459   1.411   2.773   3.761  0.0829  0.9049 -0.1611
 3715SOL     OW11460   1.360   2.029   3.055  0.5030 -0.4099  0.5578
 3715SOL    HW111461   1.302   2.072   3.117  0.1870 -1.9932  1.4193
 3715SOL    HW211462   1.389   1.950   3.100  1.4896 -0.8340 -0.7442
 3716SOL     OW11463   4.057   5.418   0.264  0.2160  0.3147  0.0158
 3716SOL    HW111464   4.150   5.432   0.247  0.2642  0.4354  0.3626
 3716SOL    HW211465   4.024   5.504   0.291  0.0009  0.2756 -0.1196
 3717SOL     OW11466   1.792   3.383   2.103 -0.5819 -0.2568  0.5039
 3717SOL    HW111467   1.777   3.301   2.151  1.5254 -0.6447  0.5691
 3717SOL    HW211468   1.784   3.359   2.011 -2.7034  0.0884  0.5476
 3718SOL     OW11469   2.423   0.617   5.244 -0.4757 -0.1324 -0.0196
 3718SOL    HW111470   2.410   0.705   5.209  1.0548 -0.3969 -1.4003
 3718SOL    HW211471   2.515   0.615   5.270 -0.5997 -1.1920  0.3936
 3719SOL     OW11472   1.521   2.703   0.912 -0.7653 -0.3207 -0.1484
 3719SOL    HW111473   1.469   2.781   0.933  2.1867  1.9402 -0.5544
 3719SOL    HW211474   1.555   2.721   0.824  0.1183 -1.9905 -0.1744
 3720SOL     OW11475   4.391   3.798   3.468 -0.4546 -0.3550  0.2722
 3720SOL    HW111476   4.415   3.793   3.560 -0.5143 -0.2157  0.2941
 3720SOL    HW211477   4.306   3.841   3.466  0.0692  0.6942  0.0702
 3721SOL     OW11478   2.303   2.658   0.237 -0.1606 -0.0257 -0.8427
 3721SOL    HW111479   2.347   2.716   0.175 -0.9993  0.4442 -1.0236
 3721SOL    HW211480   2.364   2.648   0.309 -1.1105  3.5775  0.6563
 3722SOL     OW11481   4.695   5.428   1.149  0.0241  0.2230  0.0452
 3722SOL    HW111482   4.777   5.473   1.130  0.0432  0.1642 -0.0107
 3722SOL    HW211483   4.647   5.489   1.206  0.8954 -0.5352  1.6567
 3723SOL     OW11484   1.507   1.332   0.769 -0.1144 -0.1559  0.1244
 3723SOL    HW111485   1.569   1.273   0.811  0.6697 -0.4139 -1.3451
 3723SOL    HW211486   1.516   1.314   0.675 -0.7790  1.3978 -0.2695
 3724SOL     OW11487   1.806   0.071   3.729  0.0230 -0.2024 -0.3002
 3724SOL    HW111488   1.735   0.015   3.762 -0.2595  0.9849  1.2252
 3724SOL    HW211489   1.761   0.140   3.679  0.1189  0.2814  0.2689
 3725SOL     OW11490   3.092   5.369   0.810  0.1181  0.4144  0.1006
 3725SOL    HW111491   3.136   5.308   0.869  0.2947 -0.2779 -0.7234
 3725SOL    HW211492   3.092   5.452   0.857  2.2143  0.4154  0.2047
 3726SOL     OW11493   3.542   1.862   1.050  0.0064 -0.2159 -0.5954
 3726SOL    HW111494   3.475   1.898   1.107 -1.3912  0.2709 -2.4641
 3726SOL    HW211495   3.605   1.822   1.110 -1.0027  0.8906  1.2960
 3727SOL     OW11496   4.745   1.992   0.652  0.1383  0.0820 -0.0085
 3727SOL    HW111497   4.672   2.055   0.654  0.6757  0.7377 -0.6081
 3727SOL    HW211498   4.802   2.020   0.724  0.1925  0.0491 -0.0395
 3728SOL     OW11499   0.885   3.709   0.427  0.1226 -0.3247  0.4122
 3728SOL    HW111500   0.954   3.653   0.390 -1.5034 -1.5321 -0.9615
 3728SOL    HW211501   0.855   3.662   0.505  1.7533  0.9231  1.8845
 3729SOL     OW11502   5.046   1.702   0.950 -0.5547 -0.2896  0.6643
 3729SOL    HW111503   5.121   1.699   0.891  0.2411 -0.3594  1.6503
 3729SOL    HW211504   5.015   1.612   0.954 -1.1536 -0.1427 -0.2946
 3730SOL     OW11505   3.824   3.302   3.662  0.1448 -0.0494 -0.6504
 3730SOL    HW111506   3.855   3.212   3.655  2.0207  0.2451  2.2291
 3730SOL    HW211507   3.734   3.294   3.696  0.1725 -0.8219 -0.7381
 3731SOL     OW11508   4.155   2.906   4.252  0.3501 -0.3770  0.1864
 3731SOL    HW111509   4.099   2.864   4.188 -0.1515  1.4882 -0.6541
 3731SOL    HW211510   4.220   2.839   4.274 -0.3946 -1.5718 -1.0759
 3732SOL     OW11511   1.011   2.098   1.540  0.2720  0.5378  0.0860
 3732SOL    HW111512   1.049   2.067   1.458 -0.9922  1.9575 -1.0942
 3732SOL    HW211513   0.917   2.088   1.529 -0.0848  3.0202  0.3307
 3733SOL     OW11514   1.612   3.734   1.098  0.0338  0.2801 -0.6566
 3733SOL    HW111515   1.626   3.646   1.061  1.6570 -0.0169  0.5308
 3733SOL    HW211516   1.650   3.793   1.033  2.1838 -0.1860  0.1003
 3734SOL     OW11517   4.635   0.537   3.317 -0.7183 -0.4191  0.6738
 3734SOL    HW111518   4.562   0.587   3.353 -1.8365 -1.3664 -0.2010
 3734SOL    HW211519   4.611   0.522   3.225  1.2166  0.4079 -0.0113
 3735SOL     OW11520   5.194   3.012   0.002 -0.2104 -0.0972  0.6708
 3735SOL    HW111521   5.227   3.058   0.079 -0.9604  0.1947  0.8325
 3735SOL    HW211522   5.203   2.920   0.022  1.6411 -0.0484  0.2041
 3736SOL     OW11523   1.682   4.474   5.488  0.1482  0.4204  0.3241
 3736SOL    HW111524   1.742   4.419   5.439  0.9343  1.4122  0.1375
 3736SOL    HW211525   1.595   4.442   5.465  0.5926 -0.9049  0.4489
 3737SOL     OW11526   1.793   3.660   1.599  0.2982 -0.3922  0.1257
 3737SOL    HW111527   1.784   3.610   1.518  1.2547  2.9312 -2.2715
 3737SOL    HW211528   1.710   3.708   1.607  1.4098  1.9458 -1.0411
 3738SOL     OW11529   4.210   0.550   3.687 -0.3467 -0.5298 -0.2236
 3738SOL    HW111530   4.200   0.502   3.605 -0.8017 -0.0212 -0.4707
 3738SOL    HW211531   4.267   0.495   3.740 -0.8247 -1.3291 -0.5179
 3739SOL     OW11532   5.089   0.330   4.398  0.3245  0.0131 -0.4798
 3739SOL    HW111533   5.086   0.319   4.493  0.0809 -1.4083 -0.6298
 3739SOL    HW211534   5.178   0.303   4.373  1.5358  3.4179 -0.3694
 3740SOL     OW11535   1.351   1.383   4.417 -0.3029 -0.5274 -0.5827
 3740SOL    HW111536   1.345   1.337   4.333  0.7410  0.0437 -0.9895
 3740SOL    HW211537   1.345   1.476   4.394 -0.3957 -0.3805  0.0180
 3741SOL     OW11538   0.149   1.243   2.221  0.2869  0.1906  0.7214
 3741SOL    HW111539   0.204   1.293   2.282  1.4213  0.4652 -0.5053
 3741SOL    HW211540   0.096   1.188   2.278  0.4619  1.2971  2.0246
 3742SOL     OW11541   2.330   3.878   4.484  0.4926 -0.1717 -0.0744
 3742SOL    HW111542   2.413   3.884   4.530  0.1809  1.4987  0.3261
 3742SOL    HW211543   2.265   3.869   4.554  0.2396 -0.4183 -0.3385
 3743SOL     OW11544   2.436   0.573   4.053  0.6914 -0.6671 -0.0765
 3743SOL    HW111545   2.394   0.531   3.978 -0.3412  0.8978 -0.4195
 3743SOL    HW211546   2.505   0.626   4.014  0.8793 -0.7184  0.1883
 3744SOL     OW11547   3.263   4.563   3.641 -0.5129 -0.0170 -0.0572
 3744SOL    HW111548   3.294   4.541   3.553  1.5859  0.7495  0.4443
 3744SOL    HW211549   3.297   4.494   3.697 -0.7734  0.1737  0.3414
 3745SOL     OW11550   2.271   1.244   1.800 -0.5863  0.2707 -0.0279
 3745SOL    HW111551   2.342   1.232   1.863 -0.8693  0.3957  0.3178
 3745SOL    HW211552   2.307   1.211   1.717  0.4466  1.7858 -0.2244
 3746SOL     OW11553   3.608   0.569   0.018 -0.0361 -0.6638 -0.3580
 3746SOL    HW111554   3.523   0.535   0.046 -0.0524 -1.1890 -0.9900
 3746SOL    HW211555   3.587   0.644  -0.037 -0.0361 -0.1087  0.3863
 3747SOL     OW11556   0.246   1.060   1.321 -0.1093 -0.3156  0.5062
 3747SOL    HW111557   0.265   1.110   1.242 -0.1848 -0.1447  0.5958
 3747SOL    HW211558   0.189   1.117   1.372 -0.0583 -0.4253  0.6851
 3748SOL     OW11559   5.550   3.421   2.369 -0.1780 -0.5893 -0.6632
 3748SOL    HW111560   5.590   3.507   2.385  0.9908 -1.0027 -1.3034
 3748SOL    HW211561   5.479   3.439   2.308 -0.4371  0.0248 -0.1991
 3749SOL     OW11562   4.036   1.904   4.735  0.0867 -0.4022 -0.0425
 3749SOL    HW111563   4.013   1.874   4.823 -2.8309  0.9214 -0.2601
 3749SOL    HW211564   3.986   1.984   4.722  0.9383 -0.1881 -2.6986
 3750SOL     OW11565   2.801   2.863   3.962 -0.2399 -0.6260  0.3326
 3750SOL    HW111566   2.757   2.902   4.038 -0.5560 -0.6364  0.1551
 3750SOL    HW211567   2.883   2.913   3.954 -0.7204  0.1210  0.0053
 3751SOL     OW11568   4.258   0.473   0.082  0.2881  0.2087 -0.3321
 3751SOL    HW111569   4.332   0.419   0.055 -0.4873  0.2273 -2.7615
 3751SOL    HW211570   4.203   0.414   0.135  0.6746 -0.6362 -0.8484
 3752SOL     OW11571   1.041   2.496   2.310 -0.0304 -0.3790 -0.6925
 3752SOL    HW111572   1.070   2.505   2.219  2.0483  0.3109 -0.0135
 3752SOL    HW211573   1.097   2.556   2.359 -0.9761 -0.8800  1.0826
 3753SOL     OW11574   0.663   3.836   1.399 -0.4070  0.0105  0.0901
 3753SOL    HW111575   0.698   3.911   1.351 -1.8579  1.5926  1.4127
 3753SOL    HW211576   0.740   3.796   1.440  0.6109 -0.2929 -1.9836
 3754SOL     OW11577   5.348   2.194   5.435  0.3997  0.3388  0.1797
 3754SOL    HW111578   5.263   2.199   5.391  0.2267 -1.0166  0.3176
 3754SOL    HW211579   5.386   2.112   5.403  0.3830 -0.5646  2.3156
 3755SOL     OW11580   5.539   3.443   1.239 -0.1238  0.1612 -0.4511
 3755SOL    HW111581   5.506   3.497   1.167 -0.9308 -0.7514 -0.7891
 3755SOL    HW211582   5.461   3.412   1.284  0.2963 -0.8821 -0.3977
 3756SOL     OW11583   3.349   4.482   1.199  0.4903 -0.2266 -0.1130
 3756SOL    HW111584   3.373   4.512   1.111  0.9146  0.4470  0.2234
 3756SOL    HW211585   3.389   4.546   1.258 -0.3579 -0.2867  0.5508
 3757SOL     OW11586   4.738   2.630   3.204 -0.3894  0.0436 -0.3310
 3757SOL    HW111587   4.798   2.643   3.277 -1.0936 -0.5543  0.3707
 3757SOL    HW211588   4.711   2.539   3.211  0.6079 -0.4473 -2.1821
 3758SOL     OW11589   0.406   2.930   3.017 -0.5494  0.5675  0.1845
 3758SOL    HW111590   0.470   3.001   3.010 -1.8767  1.8104 -0.0000
 3758SOL    HW211591   0.424   2.874   2.941  1.9660 -0.6193  1.5389
 3759SOL     OW11592   3.647   4.902   2.716  0.2907 -0.5592  0.1353
 3759SOL    HW111593   3.587   4.927   2.786  1.7422 -0.6080  1.4481
 3759SOL    HW211594   3.686   4.984   2.687 -1.8577 -0.2431 -2.1932
 3760SOL     OW11595   5.431   4.772   2.417 -0.0102  0.3800 -0.1398
 3760SOL    HW111596   5.378   4.694   2.435 -0.1058  0.5215  0.1942
 3760SOL    HW211597   5.491   4.744   2.347  0.7210 -0.3448  0.7449
 3761SOL     OW11598   0.848   2.132   2.516  0.0788 -0.2938 -0.6726
 3761SOL    HW111599   0.880   2.221   2.504 -1.5450  0.1574 -2.0258
 3761SOL    HW211600   0.776   2.140   2.579 -0.0581 -0.6657 -0.7760
 3762SOL     OW11601   5.334   1.139   3.893 -0.4418 -0.1076  0.1498
 3762SOL    HW111602   5.369   1.134   3.982  0.0163  1.7186  0.1079
 3762SOL    HW211603   5.390   1.082   3.842  1.9927  2.0261  0.2603
 3763SOL     OW11604   1.725   1.932   1.999  0.7239 -0.2211  0.3772
 3763SOL    HW111605   1.689   1.848   2.028  2.2427 -1.8571 -2.0918
 3763SOL    HW211606   1.763   1.914   1.913  0.6504  3.1588 -0.5183
 3764SOL     OW11607   3.615   4.395   1.874  0.2200 -0.2216 -0.3985
 3764SOL    HW111608   3.657   4.476   1.904 -1.4053  0.3218  0.5265
 3764SOL    HW211609   3.612   4.403   1.779 -2.3463  2.1356 -0.2307
 3765SOL     OW11610   2.359   1.969   1.882  0.7784 -0.0809  0.6096
 3765SOL    HW111611   2.328   1.886   1.916 -0.8879  0.5641  0.7649
 3765SOL    HW211612   2.352   2.030   1.955 -0.0462  0.6564 -0.0514
 3766SOL     OW11613   4.709   3.814   0.554  0.3595 -0.6800 -0.0754
 3766SOL    HW111614   4.766   3.889   0.571  1.4421 -1.6104  0.4375
 3766SOL    HW211615   4.767   3.738   0.553 -0.6527 -1.4847 -1.0405
 3767SOL     OW11616   5.231   1.854   2.855  0.3497  0.4022  0.2153
 3767SOL    HW111617   5.207   1.842   2.763 -0.4439 -0.6879  0.5423
 3767SOL    HW211618   5.159   1.904   2.892  0.9905  1.4246  0.1120
 3768SOL     OW11619   3.514   4.722   2.310  0.0275 -0.0923 -0.8138
 3768SOL    HW111620   3.501   4.746   2.218  1.0373 -2.7365 -1.7437
 3768SOL    HW211621   3.443   4.660   2.328 -0.6123  0.9743  0.4682
 3769SOL     OW11622   0.968   1.648   4.161 -0.0885  0.4568  0.1253
 3769SOL    HW111623   1.001   1.726   4.205 -1.0321  1.1554 -0.3804
 3769SOL    HW211624   1.040   1.622   4.102  1.1472 -0.4503  1.9463
 3770SOL     OW11625   0.050   4.006   3.241 -0.3752  0.1971 -0.1367
 3770SOL    HW111626  -0.019   3.972   3.184 -0.2740 -1.3270  0.6124
 3770SOL    HW211627   0.124   4.019   3.183 -0.4634 -0.7533 -0.4841
 3771SOL     OW11628   2.445   2.439   2.633 -0.0963 -0.0938 -0.1401
 3771SOL    HW111629   2.500   2.391   2.571  0.3405  0.3119 -0.0698
 3771SOL    HW211630   2.507   2.481   2.693 -0.5039 -2.3100  2.0037
 3772SOL     OW11631   5.097   4.911   3.792  0.0112  0.1066  0.3608
 3772SOL    HW111632   5.051   4.990   3.762 -2.5596 -1.2221  0.5494
 3772SOL    HW211633   5.083   4.909   3.887  1.3835  0.1764  0.5929
 3773SOL     OW11634   4.594   3.579   0.558  1.0966 -0.6880  0.6954
 3773SOL    HW111635   4.612   3.566   0.465  1.0142 -1.0538  0.7297
 3773SOL    HW211636   4.623   3.668   0.576  0.4846 -0.3756  0.1621
 3774SOL     OW11637   2.740   1.258   4.475 -0.2577  0.0988 -0.4171
 3774SOL    HW111638   2.812   1.196   4.466 -1.0466 -0.8374 -0.5733
 3774SOL    HW211639   2.726   1.292   4.386 -0.9676 -0.8665 -0.6934
 3775SOL     OW11640   2.663   2.436   2.480 -0.4022 -0.1567  0.4404
 3775SOL    HW111641   2.719   2.404   2.551 -1.7133 -0.5802  1.3327
 3775SOL    HW211642   2.660   2.364   2.418  0.2173 -0.0381  0.2631
 3776SOL     OW11643   0.040   2.795   3.212  0.3595  0.1737 -0.5301
 3776SOL    HW111644   0.087   2.721   3.173  0.3584 -0.0317 -0.1440
 3776SOL    HW211645   0.109   2.858   3.235  0.5720 -0.5929  1.0475
 3777SOL     OW11646   4.720   0.108   1.340 -0.4816  0.5884  0.2977
 3777SOL    HW111647   4.680   0.028   1.372 -0.4524 -0.1651 -1.4112
 3777SOL    HW211648   4.810   0.105   1.372 -0.5978  0.1489  0.5838
 3778SOL     OW11649   2.953   1.799   1.981 -0.4809 -0.1305  0.2145
 3778SOL    HW111650   2.958   1.883   2.027  2.3429 -0.0260 -0.0804
 3778SOL    HW211651   2.981   1.819   1.892  1.8764 -1.5484  0.5440
 3779SOL     OW11652   2.863   3.715   1.589  0.1183  0.1573 -0.2636
 3779SOL    HW111653   2.802   3.641   1.589  0.1828  0.0916  0.5281
 3779SOL    HW211654   2.834   3.770   1.662  0.7442  0.3436 -0.1493
 3780SOL     OW11655   1.352   2.451   1.115  0.1884  0.1375 -0.1697
 3780SOL    HW111656   1.300   2.494   1.183  0.9028  0.8955 -0.0854
 3780SOL    HW211657   1.387   2.523   1.063  1.6668 -0.3222  0.1484
 3781SOL     OW11658   0.203   0.249   0.925  0.3234  0.0040  0.0976
 3781SOL    HW111659   0.202   0.344   0.912  0.0973  0.4242  2.7875
 3781SOL    HW211660   0.248   0.236   1.008 -2.2309 -2.0284  1.2955
 3782SOL     OW11661   1.282   5.553   1.101  0.0572 -0.1198 -0.2872
 3782SOL    HW111662   1.205   5.605   1.125  0.4191  0.2195  0.1374
 3782SOL    HW211663   1.262   5.522   1.012 -0.3680  0.3488 -0.3618
 3783SOL     OW11664   4.657   1.325   0.865 -0.2713  0.0996  0.2617
 3783SOL    HW111665   4.608   1.356   0.789 -0.0159 -0.2336 -0.0395
 3783SOL    HW211666   4.589   1.290   0.924 -0.3857 -0.6013 -0.2682
 3784SOL     OW11667   0.431   5.406   3.260  0.1443 -0.5879  0.4029
 3784SOL    HW111668   0.444   5.501   3.270  1.2754 -0.8738  1.8831
 3784SOL    HW211669   0.348   5.388   3.302 -0.2407 -0.2166 -0.1835
 3785SOL     OW11670   5.276   3.341   0.750 -0.6406 -0.2154 -0.1942
 3785SOL    HW111671   5.222   3.341   0.671  0.6035 -0.1481 -1.0637
 3785SOL    HW211672   5.234   3.276   0.807 -0.8284 -1.2175 -1.4294
 3786SOL     OW11673   5.120   3.459   5.554  0.0999 -0.2008 -0.0756
 3786SOL    HW111674   5.073   3.377   5.566  0.6344 -0.4797  0.0970
 3786SOL    HW211675   5.074   3.522   5.609 -0.7918 -0.1904 -0.8009
 3787SOL     OW11676   3.607   3.943   2.522  0.2849  0.6646 -0.2796
 3787SOL    HW111677   3.697   3.924   2.498 -0.0272 -1.1842 -0.1462
 3787SOL    HW211678   3.605   3.935   2.617 -0.4725 -1.7728 -0.4318
 3788SOL     OW11679   2.028   2.065   1.253 -0.3937  0.2999 -0.4676
 3788SOL    HW111680   1.966   2.034   1.187  1.2500 -2.2565 -0.9497
 3788SOL    HW211681   2.035   1.994   1.316  1.2964  0.9138  0.0957
 3789SOL     OW11682   5.501   2.171   1.880 -0.0348  0.6301 -0.4167
 3789SOL    HW111683   5.548   2.181   1.797 -1.4396  2.6311 -1.0585
 3789SOL    HW211684   5.547   2.228   1.940  0.1627  0.2323 -0.1864
 3790SOL     OW11685   2.479   0.073   1.631  0.0948 -0.0732 -1.0193
 3790SOL    HW111686   2.511  -0.015   1.650  1.2434  0.7699  1.4218
 3790SOL    HW211687   2.550   0.115   1.583  0.3293  0.0768 -0.5465
 3791SOL     OW11688   4.014   2.515   2.281  0.5363 -0.0430  0.2759
 3791SOL    HW111689   4.085   2.458   2.253 -1.3151 -2.2343 -0.2820
 3791SOL    HW211690   3.996   2.570   2.204  0.3190 -0.8901 -0.2896
 3792SOL     OW11691   2.809   5.365   4.455  0.0663  0.0980  0.1648
 3792SOL    HW111692   2.845   5.452   4.435 -0.4313  0.0497 -1.0734
 3792SOL    HW211693   2.853   5.307   4.393 -2.6965  0.1758 -2.1210
 3793SOL     OW11694   3.866   0.655   0.493 -0.1663 -0.3627  0.3141
 3793SOL    HW111695   3.928   0.583   0.486  2.8408  2.0620 -0.4232
 3793SOL    HW211696   3.832   0.667   0.405 -1.1375 -1.1760  0.5560
 3794SOL     OW11697   0.882   2.001   3.299  0.1204 -0.1415 -0.1856
 3794SOL    HW111698   0.801   1.950   3.299 -0.3574  0.5583 -1.1696
 3794SOL    HW211699   0.887   2.037   3.210  2.3750 -1.4958 -0.6872
 3795SOL     OW11700   0.567   5.149   3.809 -0.3131  0.7097 -0.4441
 3795SOL    HW111701   0.649   5.197   3.816 -0.8368  1.5445  0.2408
 3795SOL    HW211702   0.545   5.125   3.899  0.1632 -1.2516 -0.8076
 3796SOL     OW11703   0.052   1.657   0.896  0.3551 -0.2855 -0.4209
 3796SOL    HW111704   0.117   1.670   0.828  1.4874 -2.2933  0.1688
 3796SOL    HW211705   0.101   1.615   0.968 -1.5894 -2.1642 -0.0756
 3797SOL     OW11706   3.439   4.683   0.578 -0.2107  0.3011  0.3673
 3797SOL    HW111707   3.360   4.731   0.605 -0.3042  0.9003 -0.9109
 3797SOL    HW211708   3.509   4.748   0.584  0.1593 -0.1635  1.2598
 3798SOL     OW11709   2.093   1.933   3.942 -0.6497  0.0147  0.5821
 3798SOL    HW111710   2.085   1.994   4.016  1.7336  0.5493  0.4800
 3798SOL    HW211711   2.141   1.859   3.977 -0.1313 -0.0530 -0.2558
 3799SOL     OW11712   0.686   1.085   1.736  0.3552  0.8602 -0.5748
 3799SOL    HW111713   0.609   1.042   1.772  0.7578 -0.3688 -1.1514
 3799SOL    HW211714   0.698   1.162   1.791 -1.9337  1.7185 -1.1564
 3800SOL     OW11715   2.622   5.160   4.381  0.0740 -0.1161 -0.0786
 3800SOL    HW111716   2.645   5.067   4.384  1.3441  0.1822  0.2006
 3800SOL    HW211717   2.693   5.203   4.429 -0.8682  0.9357  0.3951
 3801SOL     OW11718   2.489   3.306   2.096 -0.6758  0.3678  0.6491
 3801SOL    HW111719   2.417   3.311   2.159 -0.1271 -0.6073  1.3724
 3801SOL    HW211720   2.446   3.316   2.011 -1.5720  0.5669  1.1113
 3802SOL     OW11721   2.179   1.796   4.223 -0.2591  0.0285  0.0666
 3802SOL    HW111722   2.114   1.728   4.203  0.2920 -0.3467 -0.4886
 3802SOL    HW211723   2.239   1.794   4.149  0.0559  0.7795  0.2941
 3803SOL     OW11724   4.921   5.163   3.965 -0.8929  0.1400  0.2549
 3803SOL    HW111725   4.868   5.240   3.945 -2.8034 -0.2922  3.1382
 3803SOL    HW211726   4.987   5.195   4.026  1.5331  0.3870 -2.2908
 3804SOL     OW11727   3.714   1.436   1.199  0.2069  0.9116  0.1628
 3804SOL    HW111728   3.707   1.530   1.183  2.0040  1.5516  2.6748
 3804SOL    HW211729   3.791   1.409   1.148  1.3374  1.4228  1.5160
 3805SOL     OW11730   0.531   2.130   3.581  0.5339  0.5406 -0.2221
 3805SOL    HW111731   0.561   2.041   3.565 -0.0237  0.2645  0.2241
 3805SOL    HW211732   0.600   2.168   3.637  1.5440  0.9085 -1.6716
 3806SOL     OW11733   0.222   1.043   0.077  0.1473  0.1806 -0.2126
 3806SOL    HW111734   0.256   0.957   0.050  1.1985  0.5069  0.0363
 3806SOL    HW211735   0.162   1.023   0.149  1.2739 -0.2715  0.6332
 3807SOL     OW11736   4.818   3.729   4.291  0.4715 -0.0488 -0.1155
 3807SOL    HW111737   4.781   3.676   4.362  0.5866 -0.5105 -0.3950
 3807SOL    HW211738   4.752   3.727   4.222  1.2564 -1.4250 -0.8775
 3808SOL     OW11739   4.931   2.859   4.265  0.6941  0.2623 -0.2263
 3808SOL    HW111740   4.908   2.768   4.282  1.5981  0.2907  1.3080
 3808SOL    HW211741   5.019   2.869   4.301  0.3321  1.9218  0.2998
 3809SOL     OW11742   4.183   4.048   4.747  0.1228  0.0613 -0.7208
 3809SOL    HW111743   4.193   4.029   4.840 -0.7071  2.1942 -0.1373
 3809SOL    HW211744   4.122   3.981   4.716  1.1099 -1.2386  0.0235
 3810SOL     OW11745   3.037   0.449   2.312 -0.5748 -0.2180 -0.0281
 3810SOL    HW111746   3.088   0.412   2.385  2.4811 -0.3258 -2.0154
 3810SOL    HW211747   3.054   0.543   2.316  0.3053 -0.3179 -1.0341
 3811SOL     OW11748   3.988   2.416   2.552 -0.5668  0.1737 -0.1011
 3811SOL    HW111749   3.903   2.377   2.528  0.5140 -1.2121 -2.0200
 3811SOL    HW211750   4.033   2.427   2.468  0.9400  1.4351  0.8298
 3812SOL     OW11751   3.214   5.357   2.539  0.5828 -0.3759 -0.2551
 3812SOL    HW111752   3.251   5.332   2.623  1.5346 -1.0502 -0.8494
 3812SOL    HW211753   3.287   5.348   2.477 -0.2863 -0.6260 -1.2752
 3813SOL     OW11754   1.537   4.663   0.487 -0.1235 -0.2735 -0.6298
 3813SOL    HW111755   1.567   4.588   0.437  1.7512 -1.2386  1.7594
 3813SOL    HW211756   1.566   4.646   0.576 -2.6372  1.7023  0.7055
 3814SOL     OW11757   3.534   0.769   4.281 -0.8412  0.2119 -0.3423
 3814SOL    HW111758   3.472   0.835   4.249 -0.6764 -0.2687 -1.7001
 3814SOL    HW211759   3.495   0.685   4.257  0.5207 -0.0898 -1.6375
 3815SOL     OW11760   3.138   3.923   0.274 -0.2201  0.7132 -0.3557
 3815SOL    HW111761   3.220   3.881   0.247 -0.0111 -0.1230  1.4557
 3815SOL    HW211762   3.072   3.854   0.266 -0.2310  0.5725  0.7588
 3816SOL     OW11763   2.035   4.921   1.287  0.5349 -0.3010 -0.0684
 3816SOL    HW111764   2.124   4.917   1.253  0.3584 -0.5745 -0.5105
 3816SOL    HW211765   2.037   4.990   1.353  1.0870 -0.3488 -0.0306
 3817SOL     OW11766   1.337   2.961   0.140  0.0627 -0.9620  0.2812
 3817SOL    HW111767   1.326   2.949   0.234  1.9197  0.9071  0.7946
 3817SOL    HW211768   1.312   3.053   0.124  3.0333 -0.1678 -0.3949
 3818SOL     OW11769   4.114   4.933   2.301 -0.0433 -1.1164  0.1315
 3818SOL    HW111770   4.161   4.971   2.375  0.4239 -2.7563  0.7122
 3818SOL    HW211771   4.025   4.918   2.334  0.3707 -2.5740  0.6527
 3819SOL     OW11772   2.707   1.772   0.722  0.2353  0.0558 -0.5932
 3819SOL    HW111773   2.768   1.809   0.786 -0.9066  3.2606 -1.1753
 3819SOL    HW211774   2.629   1.750   0.772  0.6064 -0.8284 -0.3821
 3820SOL     OW11775   1.914   4.312   4.774 -0.2672 -0.3039 -0.2081
 3820SOL    HW111776   1.861   4.336   4.697 -1.1499  0.4047  0.5949
 3820SOL    HW211777   1.968   4.239   4.744 -0.3701  0.1570 -1.5922
 3821SOL     OW11778   1.484   3.054   3.417  0.2648  0.0992 -0.4597
 3821SOL    HW111779   1.408   3.073   3.472  0.1876  1.9142 -1.1284
 3821SOL    HW211780   1.463   2.970   3.376 -0.6589 -0.1973  0.5691
 3822SOL     OW11781   1.718   0.572   3.732 -0.2792  0.2482 -0.2513
 3822SOL    HW111782   1.730   0.485   3.770  0.9605  0.4524 -0.1475
 3822SOL    HW211783   1.625   0.590   3.743  0.0452  0.4535  3.0508
 3823SOL     OW11784   0.715   1.994   0.895  0.2339 -0.0656 -0.1939
 3823SOL    HW111785   0.710   1.904   0.927 -0.3091  0.0962  0.1962
 3823SOL    HW211786   0.719   2.047   0.974  4.3168  0.1226 -0.3457
 3824SOL     OW11787   5.477   1.748   2.869 -0.4176  0.0335  0.3524
 3824SOL    HW111788   5.474   1.672   2.927 -0.7448 -2.2051 -2.3599
 3824SOL    HW211789   5.400   1.800   2.892  0.5653  0.3808  3.2015
 3825SOL     OW11790   4.333   1.796   3.926 -0.1374  0.2242 -0.3695
 3825SOL    HW111791   4.333   1.749   3.842  0.9962 -0.1500 -0.1854
 3825SOL    HW211792   4.326   1.888   3.902 -0.2905  0.0889 -0.8581
 3826SOL     OW11793   0.151   1.889   3.758  0.3353 -0.0512 -0.2036
 3826SOL    HW111794   0.172   1.799   3.785  1.4745  0.4025  0.4743
 3826SOL    HW211795   0.167   1.890   3.664 -0.3651 -0.7285 -0.3501
 3827SOL     OW11796   0.474   4.878   1.480 -0.3223 -0.3511  0.3806
 3827SOL    HW111797   0.550   4.831   1.515  1.1237  1.9220  0.4604
 3827SOL    HW211798   0.399   4.842   1.528  1.1909  0.2466  3.4199
 3828SOL     OW11799   0.114   3.211   2.053  0.2617  0.4075 -0.3378
 3828SOL    HW111800   0.191   3.222   1.997  0.7539  0.2141  0.2901
 3828SOL    HW211801   0.057   3.284   2.030 -0.0972 -0.3371 -1.9502
 3829SOL     OW11802   1.577   1.361   1.379  0.0892  0.5168 -0.4157
 3829SOL    HW111803   1.548   1.305   1.306  0.6800  0.6638 -0.7714
 3829SOL    HW211804   1.534   1.445   1.363 -1.1725  0.0486  0.3758
 3830SOL     OW11805   4.439   1.112   4.686  0.1684  0.5288  0.3546
 3830SOL    HW111806   4.429   1.036   4.744 -1.9213 -0.0419 -0.6456
 3830SOL    HW211807   4.419   1.187   4.742 -0.6324  0.0833  0.6921
 3831SOL     OW11808   2.684   1.227   0.619  0.3601 -0.2459 -0.9298
 3831SOL    HW111809   2.694   1.320   0.639 -1.2928 -0.1963 -0.0940
 3831SOL    HW211810   2.761   1.185   0.658  0.2242  0.5876  0.2868
 3832SOL     OW11811   5.395   1.435   3.358 -0.0823 -0.3781 -0.1720
 3832SOL    HW111812   5.351   1.497   3.415  1.1375  1.2711 -0.9660
 3832SOL    HW211813   5.484   1.429   3.392  0.2517 -0.4830 -1.0307
 3833SOL     OW11814   1.285   4.773   1.900 -0.2005  0.0408 -0.1007
 3833SOL    HW111815   1.262   4.682   1.918 -0.6872  0.1227 -0.3073
 3833SOL    HW211816   1.323   4.805   1.982 -0.5210 -0.1914  0.1414
 3834SOL     OW11817   2.286   3.137   1.198 -0.0032  0.1224 -0.1285
 3834SOL    HW111818   2.376   3.103   1.197 -0.3617 -0.8489 -0.1213
 3834SOL    HW211819   2.231   3.059   1.195 -0.8549  0.6890  0.4420
 3835SOL     OW11820   0.542   1.392   2.117 -0.3162  0.6847 -0.4154
 3835SOL    HW111821   0.591   1.309   2.123 -0.6888  0.2944 -2.1593
 3835SOL    HW211822   0.471   1.383   2.181 -0.6693 -0.5778 -0.9597
 3836SOL     OW11823   2.824   4.547   5.297  0.7197  0.1892 -0.0715
 3836SOL    HW111824   2.777   4.555   5.214  1.2769 -1.4572 -0.5841
 3836SOL    HW211825   2.766   4.495   5.352 -0.2961  2.4510  1.1472
 3837SOL     OW11826   1.222   5.052   0.778  0.0256  0.3461 -0.4744
 3837SOL    HW111827   1.249   5.052   0.686 -1.8232  0.0630 -1.0426
 3837SOL    HW211828   1.174   5.134   0.789 -0.0749  0.2033  0.1531
 3838SOL     OW11829   2.718   0.108   2.356  0.1696  0.2863 -0.1000
 3838SOL    HW111830   2.810   0.086   2.342  0.0196 -0.4717  0.0578
 3838SOL    HW211831   2.710   0.199   2.327  1.0333  0.4568  0.1667
 3839SOL     OW11832   5.078   4.789   3.013  0.1604 -0.1296  0.6566
 3839SOL    HW111833   5.035   4.853   3.070  0.9012  0.5598  0.4607
 3839SOL    HW211834   5.027   4.791   2.932 -0.2915 -0.3735  0.9287
 3840SOL     OW11835   5.159   4.268   0.236  0.0713  0.0563 -0.0401
 3840SOL    HW111836   5.151   4.363   0.225 -0.5800 -0.2149 -2.3230
 3840SOL    HW211837   5.231   4.244   0.177  0.2084 -0.8776  0.4993
 3841SOL     OW11838   5.074   4.916   1.591 -0.5613  0.2138 -0.2079
 3841SOL    HW111839   5.141   4.901   1.657 -0.7146  0.8003  0.0886
 3841SOL    HW211840   5.111   4.881   1.510 -0.9120 -1.7262  0.4381
 3842SOL     OW11841   1.963   5.109   3.221 -0.5257  0.0237 -0.0644
 3842SOL    HW111842   1.875   5.072   3.217 -0.7057  0.5016 -0.5973
 3842SOL    HW211843   2.007   5.057   3.289 -0.7628 -1.1863 -0.7941
 3843SOL     OW11844   3.390   0.426   2.024  0.6071  0.0571 -0.2214
 3843SOL    HW111845   3.331   0.352   2.040 -0.6271  0.8140 -1.1025
 3843SOL    HW211846   3.464   0.410   2.082  0.2943 -1.7829 -0.2679
 3844SOL     OW11847   4.268   3.160   0.934 -0.3753  0.0498 -0.1651
 3844SOL    HW111848   4.199   3.127   0.992 -0.3038 -1.6268 -0.9647
 3844SOL    HW211849   4.223   3.220   0.875 -1.6577 -2.4679 -1.9327
 3845SOL     OW11850   3.774   3.334   0.478  0.2653 -0.2550 -0.6644
 3845SOL    HW111851   3.741   3.412   0.523 -0.8579  0.5136 -2.6778
 3845SOL    HW211852   3.711   3.265   0.501 -0.0404  0.0075 -0.7073
 3846SOL     OW11853   3.174   4.820   1.455  0.5347  0.3401 -0.5071
 3846SOL    HW111854   3.194   4.891   1.517 -0.8320  1.2657 -1.0697
 3846SOL    HW211855   3.174   4.863   1.369 -1.4634 -0.0496 -0.7509
 3847SOL     OW11856   2.490   2.057   3.807  0.1404 -0.0326 -0.6566
 3847SOL    HW111857   2.465   2.110   3.883 -1.1547 -0.6941 -0.5810
 3847SOL    HW211858   2.496   2.120   3.735 -1.8754  0.1947 -0.6814
 3848SOL     OW11859   2.750   3.735   2.090  0.1566 -0.4348 -0.3412
 3848SOL    HW111860   2.779   3.745   2.181 -0.3725  0.9914 -0.2970
 3848SOL    HW211861   2.821   3.687   2.048  0.2247 -1.4996  0.8996
 3849SOL     OW11862   0.302   4.083   4.923 -0.1988 -0.2524  0.4662
 3849SOL    HW111863   0.394   4.084   4.950  0.9459 -0.6802 -2.9419
 3849SOL    HW211864   0.274   3.993   4.937  0.0597 -0.2448  1.0478
 3850SOL     OW11865   1.794   1.875   0.163 -0.5481  0.2329  0.2087
 3850SOL    HW111866   1.885   1.905   0.168 -0.3264 -0.4727  0.5783
 3850SOL    HW211867   1.746   1.934   0.221 -0.2900  0.4723  0.1805
 3851SOL     OW11868   0.401   0.467   1.775 -0.1352  0.3847 -0.3807
 3851SOL    HW111869   0.329   0.476   1.837  0.5321  1.2924  0.2856
 3851SOL    HW211870   0.399   0.375   1.749 -1.2675  0.3029 -0.0654
 3852SOL     OW11871   1.921   3.712   3.311 -0.2489  0.0367 -0.0521
 3852SOL    HW111872   1.934   3.664   3.229 -0.5639 -2.1133  1.0779
 3852SOL    HW211873   1.999   3.692   3.363 -1.6015 -1.6126  1.4868
 3853SOL     OW11874   0.794   0.627   2.846 -0.2814 -0.7010 -0.4436
 3853SOL    HW111875   0.790   0.532   2.851 -2.6389 -0.6718 -0.5429
 3853SOL    HW211876   0.740   0.657   2.919  0.6267  0.5889 -0.2602
 3854SOL     OW11877   2.135   3.094   3.069  0.8927  0.5872  0.1339
 3854SOL    HW111878   2.227   3.100   3.093  1.3494 -0.6557 -1.1529
 3854SOL    HW211879   2.093   3.167   3.115  2.3674  0.7083  1.3604
 3855SOL     OW11880   1.150   0.944   0.313  0.2403 -0.2504  0.5318
 3855SOL    HW111881   1.183   1.032   0.332  0.7039 -0.5089  0.9631
 3855SOL    HW211882   1.211   0.909   0.248 -0.9091  0.3504 -0.9334
 3856SOL     OW11883   1.215   4.468   2.006 -0.0474  0.1666 -0.4071
 3856SOL    HW111884   1.307   4.477   2.032  0.0760 -1.8118 -0.0058
 3856SOL    HW211885   1.167   4.518   2.071  0.7227  1.5293 -0.8193
 3857SOL     OW11886   5.533   1.654   4.587  0.3549  0.2034 -0.1228
 3857SOL    HW111887   5.545   1.699   4.671 -1.5366  0.6671 -0.0642
 3857SOL    HW211888   5.518   1.562   4.611 -1.3234  0.5233  0.1672
 3858SOL     OW11889   4.478   1.605   0.149 -0.2725  0.1258  0.1319
 3858SOL    HW111890   4.449   1.613   0.058  0.2633  0.9127  0.0269
 3858SOL    HW211891   4.573   1.595   0.143 -0.2996 -0.4576  0.5791
 3859SOL     OW11892   5.505   1.527   3.958  0.2146 -0.4896  0.2677
 3859SOL    HW111893   5.416   1.515   3.992 -0.0937 -0.5501 -0.5195
 3859SOL    HW211894   5.510   1.466   3.884  0.6625  0.0423 -0.1465
 3860SOL     OW11895   2.924   5.214   4.279  0.7459  0.6866 -0.5388
 3860SOL    HW111896   2.971   5.261   4.210 -1.6632  0.6970 -2.3007
 3860SOL    HW211897   2.883   5.140   4.234 -2.2793  1.6076  0.4498
 3861SOL     OW11898   1.696   4.099   2.526 -0.6421  0.2014 -0.8560
 3861SOL    HW111899   1.619   4.105   2.469 -1.8011 -1.2298  0.4579
 3861SOL    HW211900   1.660   4.082   2.613  1.1626 -0.0631 -0.1152
 3862SOL     OW11901   4.149   1.457   4.544  0.0373 -0.1521 -0.1536
 3862SOL    HW111902   4.215   1.414   4.600 -0.6076 -1.7631 -0.5790
 3862SOL    HW211903   4.153   1.409   4.462 -0.0212  1.2900 -1.0285
 3863SOL     OW11904   4.546   1.131   3.118  0.2777  0.3705 -0.1401
 3863SOL    HW111905   4.592   1.199   3.167  0.5320  0.5552 -0.6287
 3863SOL    HW211906   4.536   1.059   3.180  0.4335  0.6715  0.2362
 3864SOL     OW11907   3.757   4.992   3.553  0.2814  0.1990 -0.3682
 3864SOL    HW111908   3.768   4.910   3.506  0.9112  0.0884 -0.0409
 3864SOL    HW211909   3.742   4.967   3.644  0.8253  0.4461 -0.2035
 3865SOL     OW11910   1.602   0.822   3.008 -0.2005  0.8273  0.0919
 3865SOL    HW111911   1.577   0.912   2.986 -1.6911  0.3951 -0.1409
 3865SOL    HW211912   1.695   0.817   2.988 -0.5031  1.7703 -1.7935
 3866SOL     OW11913   2.043   2.319   2.502 -0.5256 -0.1104 -0.3169
 3866SOL    HW111914   2.129   2.309   2.542  0.0787  1.4772 -1.1321
 3866SOL    HW211915   1.981   2.290   2.570  0.5318  1.0839  1.2505
 3867SOL     OW11916   4.805   0.379   0.175 -0.3604 -0.4058 -0.0070
 3867SOL    HW111917   4.787   0.292   0.138 -0.3383 -0.5492  0.3148
 3867SOL    HW211918   4.882   0.365   0.231  0.9746  0.2483 -1.5973
 3868SOL     OW11919   0.566   5.069   1.243 -0.4073 -0.0617 -0.0351
 3868SOL    HW111920   0.509   4.997   1.270  0.2807 -0.4621  0.3818
 3868SOL    HW211921   0.511   5.147   1.247 -0.4687 -0.1641  2.1402
 3869SOL     OW11922   3.298   5.335   2.771  0.6917 -0.2866 -0.1851
 3869SOL    HW111923   3.241   5.308   2.843 -0.6319  1.9646 -0.2574
 3869SOL    HW211924   3.319   5.426   2.791  0.0971  0.4926 -2.6930
 3870SOL     OW11925   5.093   3.646   2.363  0.0634  0.5378  0.3604
 3870SOL    HW111926   5.104   3.702   2.286  0.0470  1.2624  0.8724
 3870SOL    HW211927   5.084   3.558   2.327  0.0043  0.8686 -0.4699
 3871SOL     OW11928   2.951   4.312   2.532 -0.0757  0.4222  0.0553
 3871SOL    HW111929   2.871   4.261   2.521  0.6416 -0.6225 -0.4712
 3871SOL    HW211930   2.949   4.340   2.623 -2.4055  2.8219 -0.6068
 3872SOL     OW11931   1.305   2.888   4.880  0.1767  0.5744  0.1523
 3872SOL    HW111932   1.371   2.954   4.858  0.2746  0.6394  0.6395
 3872SOL    HW211933   1.291   2.898   4.974 -1.0912  1.0726 -0.0680
 3873SOL     OW11934   2.861   0.002   2.913 -0.0627 -0.1878  0.6542
 3873SOL    HW111935   2.777   0.005   2.958 -0.7299 -0.0009 -0.5691
 3873SOL    HW211936   2.857   0.074   2.850  1.5949  0.7508  1.5453
 3874SOL     OW11937   4.237   3.675   1.274  0.3219 -0.6633 -0.1625
 3874SOL    HW111938   4.310   3.657   1.334  1.6507  2.0092 -0.7983
 3874SOL    HW211939   4.240   3.604   1.211  1.9977 -0.9793  0.1978
 3875SOL     OW11940   3.368   2.452   2.054  0.3134  0.4000 -0.4722
 3875SOL    HW111941   3.296   2.394   2.078  0.4867  0.5074  0.3325
 3875SOL    HW211942   3.349   2.479   1.964 -0.2173 -0.2183 -0.5483
 3876SOL     OW11943   4.992   1.388   2.097  0.3183  0.3913  0.8428
 3876SOL    HW111944   5.057   1.347   2.040  1.0912 -0.4402  2.2613
 3876SOL    HW211945   5.020   1.480   2.102 -0.1949  0.6605 -0.6652
 3877SOL     OW11946   1.553   5.454   4.573  0.0236  0.4697  0.1271
 3877SOL    HW111947   1.638   5.474   4.614  0.6928  0.7139 -1.2808
 3877SOL    HW211948   1.543   5.523   4.507 -0.0399 -1.0068 -1.4523
 3878SOL     OW11949   5.343   5.098   2.669 -0.3148  0.0891  0.5639
 3878SOL    HW111950   5.290   5.172   2.641  1.2519  1.2965  0.6361
 3878SOL    HW211951   5.292   5.021   2.644 -1.1434  1.1545 -1.2623
 3879SOL     OW11952   0.705   3.319   4.756 -0.1149  0.3850 -0.3212
 3879SOL    HW111953   0.709   3.224   4.745  1.5310  0.2635  0.8052
 3879SOL    HW211954   0.619   3.335   4.793 -0.6243 -0.6068 -1.0226
 3880SOL     OW11955   5.499   3.672   3.698 -0.3007 -0.2748  0.3326
 3880SOL    HW111956   5.552   3.593   3.686  1.3070  0.3517  2.5147
 3880SOL    HW211957   5.484   3.705   3.610  0.1770 -2.2625 -0.5440
 3881SOL     OW11958   0.783   0.682   1.912  0.1405  0.2346  0.5410
 3881SOL    HW111959   0.876   0.695   1.931  0.7329 -0.7391 -1.4393
 3881SOL    HW211960   0.774   0.702   1.819 -1.6215  0.1880  0.6660
 3882SOL     OW11961   0.881   5.257   1.107 -0.1371  0.4085 -0.3420
 3882SOL    HW111962   0.848   5.332   1.156  0.2310 -0.4685  1.3048
 3882SOL    HW211963   0.819   5.186   1.126 -0.1065  0.0980 -1.3319
 3883SOL     OW11964   0.218   2.506   2.063 -0.2155  0.0041 -0.6442
 3883SOL    HW111965   0.130   2.543   2.053  0.0370  0.7886 -0.1446
 3883SOL    HW211966   0.206   2.412   2.060 -1.1470  0.0949 -0.0637
 3884SOL     OW11967   1.334   1.608   1.822  0.1839 -0.3749  0.4322
 3884SOL    HW111968   1.278   1.626   1.747 -0.6152 -1.2827  0.7978
 3884SOL    HW211969   1.318   1.680   1.883 -2.5184 -1.8657  1.6248
 3885SOL     OW11970   3.613   4.411   1.582  0.3898 -0.1023 -0.0902
 3885SOL    HW111971   3.527   4.371   1.595  0.9420 -1.5688 -0.8303
 3885SOL    HW211972   3.620   4.423   1.488  1.6266 -1.4738 -0.1939
 3886SOL     OW11973   1.186   0.369   3.486 -0.2872 -0.1017  0.5049
 3886SOL    HW111974   1.124   0.406   3.550 -0.5537  0.5128 -0.0966
 3886SOL    HW211975   1.244   0.442   3.464 -1.6566  0.4136 -1.7262
 3887SOL     OW11976   4.302   3.207   2.484  0.7448  0.1720 -0.6560
 3887SOL    HW111977   4.210   3.216   2.460  0.4196  0.8539  0.7235
 3887SOL    HW211978   4.348   3.200   2.401 -0.6419 -1.2637 -1.3480
 3888SOL     OW11979   1.579   4.469   1.706  0.3674  0.2882  0.2007
 3888SOL    HW111980   1.601   4.406   1.774  0.1999 -0.8503 -0.7625
 3888SOL    HW211981   1.620   4.433   1.627 -0.2159  1.0969 -0.4833
 3889SOL     OW11982   0.576   3.304   0.995  0.3552  0.0905 -0.5114
 3889SOL    HW111983   0.484   3.314   1.022  0.7005 -0.5673  0.9858
 3889SOL    HW211984   0.610   3.393   0.994  0.2992  0.1460  1.1821
 3890SOL     OW11985   5.264   4.840   1.750 -0.1027 -0.1735 -0.2620
 3890SOL    HW111986   5.330   4.806   1.691 -0.2450 -0.4036 -0.2900
 3890SOL    HW211987   5.308   4.846   1.835 -0.1151 -0.5562 -0.2275
 3891SOL     OW11988   0.152   1.582   2.043  0.1730  0.4004  0.3572
 3891SOL    HW111989   0.128   1.640   1.971  1.3106  1.4800  0.8013
 3891SOL    HW211990   0.158   1.640   2.119 -1.5146 -0.7899  1.4738
 3892SOL     OW11991   4.688   3.923   1.612 -0.4690  0.2259  0.2718
 3892SOL    HW111992   4.661   3.984   1.680  1.3157  0.7077  0.5937
 3892SOL    HW211993   4.748   3.973   1.557 -0.5807 -0.6465 -0.6719
 3893SOL     OW11994   5.307   0.609   0.031  1.0450  0.2981 -0.6027
 3893SOL    HW111995   5.396   0.595   0.064  0.7741 -2.6204 -0.8773
 3893SOL    HW211996   5.318   0.620  -0.063  1.0469 -1.7844 -0.8867
 3894SOL     OW11997   4.413   1.983   2.943 -0.0047 -0.1121  0.2812
 3894SOL    HW111998   4.428   1.894   2.975 -1.6143 -0.8024 -0.7841
 3894SOL    HW211999   4.366   1.971   2.861 -1.2682  1.7506  0.6769
 3895SOL     OW12000   5.356   3.496   2.185  0.4996  0.4844  0.1289
 3895SOL    HW112001   5.403   3.574   2.156  0.1370  0.2187 -1.2709
 3895SOL    HW212002   5.347   3.443   2.106  2.6300 -2.0237  1.4032
 3896SOL     OW12003   1.603   5.020   0.907  0.3790 -0.5469 -0.0132
 3896SOL    HW112004   1.545   5.090   0.878  1.7779  0.0684 -1.4173
 3896SOL    HW212005   1.586   5.012   1.001 -1.9236 -0.3698 -0.3590
 3897SOL     OW12006   5.023   5.529   0.035 -0.1073 -0.3635  0.2138
 3897SOL    HW112007   5.030   5.447   0.083  1.2346 -0.7486 -0.6018
 3897SOL    HW212008   5.086   5.587   0.078 -1.8495  0.6550  1.5178
 3898SOL     OW12009   2.223   2.574   2.780  0.2421  0.2175  0.4599
 3898SOL    HW112010   2.218   2.478   2.776  1.7032  0.1443 -0.3835
 3898SOL    HW212011   2.145   2.600   2.828 -0.8828 -1.3210 -0.4373
 3899SOL     OW12012   0.819   1.846   1.146  0.3643  0.2802  0.0650
 3899SOL    HW112013   0.769   1.870   1.224 -1.6097  1.1944 -1.3636
 3899SOL    HW212014   0.910   1.857   1.170 -0.2003  0.7839  2.1379
 3900SOL     OW12015   3.619   5.302   4.546 -0.0592 -0.1547  0.0433
 3900SOL    HW112016   3.658   5.291   4.632 -1.6215  0.5661  0.8904
 3900SOL    HW212017   3.557   5.230   4.538 -1.5045  0.9799  0.4965
 3901SOL     OW12018   1.177   3.186   5.117  0.4939  0.9180  0.1696
 3901SOL    HW112019   1.214   3.262   5.071 -0.1015  0.9948 -0.1911
 3901SOL    HW212020   1.101   3.161   5.064  0.2073  0.5763  0.7402
 3902SOL     OW12021   2.420   4.836   3.139  0.8894  0.1199  0.1084
 3902SOL    HW112022   2.449   4.927   3.132 -1.4912  0.8970 -0.4641
 3902SOL    HW212023   2.325   4.841   3.140  0.6755 -2.2472  2.0447
 3903SOL     OW12024   0.839   0.319   3.124 -0.1537 -0.6455  0.2476
 3903SOL    HW112025   0.840   0.293   3.032  1.2322 -1.4001  0.4525
 3903SOL    HW212026   0.915   0.376   3.134 -0.6062 -0.1153  0.8282
 3904SOL     OW12027   0.893   5.307   2.493  0.8267 -0.7136 -0.0013
 3904SOL    HW112028   0.922   5.397   2.480  0.8863 -0.5429  1.2197
 3904SOL    HW212029   0.831   5.291   2.421 -0.3822  0.8370  0.6371
 3905SOL     OW12030   0.940   3.229   1.621  0.0532  0.6725  0.3245
 3905SOL    HW112031   0.923   3.257   1.711 -1.1974  0.2948  0.2133
 3905SOL    HW212032   0.854   3.226   1.580  0.3662 -1.1757 -0.2928
 3906SOL     OW12033   4.262   4.649   4.375 -0.7283  0.0508 -0.9713
 3906SOL    HW112034   4.328   4.635   4.444 -0.7520  1.8159 -0.5372
 3906SOL    HW212035   4.292   4.594   4.303  1.0526  0.5249 -0.6577
 3907SOL     OW12036   2.595   4.896   5.519 -0.0105 -0.0157  0.4554
 3907SOL    HW112037   2.506   4.908   5.486  0.1500  2.7581  0.8300
 3907SOL    HW212038   2.585   4.887   5.614  0.0344 -0.9294  0.3789
 3908SOL     OW12039   1.862   4.832   3.741  0.2442  0.2266  1.3347
 3908SOL    HW112040   1.796   4.790   3.796  0.5773  1.3994  2.6852
 3908SOL    HW212041   1.812   4.891   3.684 -0.0197 -0.2452  1.0769
 3909SOL     OW12042   1.010   4.054   5.209 -0.0651  0.1573  1.0174
 3909SOL    HW112043   1.102   4.028   5.199  0.1364  1.5305 -1.8224
 3909SOL    HW212044   1.015   4.147   5.233 -0.5735  0.9631 -1.6256
 3910SOL     OW12045   4.728   5.086   3.545 -0.1399  0.3304  0.8286
 3910SOL    HW112046   4.814   5.095   3.585 -0.8355  0.4871  2.3742
 3910SOL    HW212047   4.670   5.137   3.602 -1.3420 -0.2284  0.1380
 3911SOL     OW12048   5.286   5.559   0.958  0.2275  0.4976 -0.7978
 3911SOL    HW112049   5.294   5.593   1.047  0.6689  0.9103 -0.9909
 3911SOL    HW212050   5.371   5.577   0.918  0.0020  0.3887 -1.3310
 3912SOL     OW12051   0.718   5.056   5.256  0.6748  0.3284  0.0371
 3912SOL    HW112052   0.634   5.095   5.281  0.6311  0.1066  0.2382
 3912SOL    HW212053   0.783   5.107   5.305  0.5340 -0.6961  1.3748
 3913SOL     OW12054   4.173   3.262   5.336 -0.1248  0.3358 -0.0416
 3913SOL    HW112055   4.159   3.351   5.304 -1.1865  0.0311 -0.4940
 3913SOL    HW212056   4.261   3.263   5.374  0.8277  0.9850 -2.1053
 3914SOL     OW12057   0.805   5.095   4.999  0.3956  0.2296 -0.5774
 3914SOL    HW112058   0.759   5.110   5.082  3.5004  0.0203  1.3510
 3914SOL    HW212059   0.789   5.003   4.979 -1.0092  0.4748 -0.6620
 3915SOL     OW12060   0.490   1.145   3.902  0.2416 -0.0574 -0.2747
 3915SOL    HW112061   0.490   1.230   3.946 -0.1368  0.2263 -0.8028
 3915SOL    HW212062   0.480   1.081   3.972  0.7155  0.3218  0.1471
 3916SOL     OW12063   0.723   4.175   1.430  0.1560 -0.0710  0.6794
 3916SOL    HW112064   0.798   4.184   1.489  0.2459  0.8920  0.4298
 3916SOL    HW212065   0.726   4.253   1.375 -0.2788 -0.6628 -0.2057
 3917SOL     OW12066   0.543   4.681   5.027  0.2610 -0.3843 -0.6016
 3917SOL    HW112067   0.490   4.757   5.049 -0.4087 -0.5110 -1.6968
 3917SOL    HW212068   0.480   4.610   5.017  0.9524 -1.3628  1.3830
 3918SOL     OW12069   3.633   5.442   3.918 -0.1750  0.1002 -0.5665
 3918SOL    HW112070   3.653   5.525   3.874  0.2023 -0.6368 -1.8459
 3918SOL    HW212071   3.620   5.380   3.846 -0.4493 -0.9529  0.3700
 3919SOL     OW12072   0.685   5.254   0.501  0.5594  0.1855 -0.0923
 3919SOL    HW112073   0.690   5.265   0.596  2.3620 -0.6478 -0.0342
 3919SOL    HW212074   0.671   5.342   0.467  1.0309  0.6683  0.9069
 3920SOL     OW12075   3.090   0.916   2.244 -0.1706  0.0579  0.3841
 3920SOL    HW112076   3.116   0.914   2.337 -1.3337 -0.5925  0.7132
 3920SOL    HW212077   3.117   0.831   2.209 -0.4291 -0.0045  0.3321
 3921SOL     OW12078   3.229   4.974   5.386 -0.1185  0.1905  0.2378
 3921SOL    HW112079   3.149   4.944   5.341 -0.4018 -0.9040  1.4117
 3921SOL    HW212080   3.258   4.898   5.436  2.0864  0.3279 -0.7019
 3922SOL     OW12081   4.402   3.839   4.717  0.1727  0.1280 -0.3175
 3922SOL    HW112082   4.464   3.872   4.652  0.2011  0.3535 -0.1797
 3922SOL    HW212083   4.326   3.897   4.709 -0.4331 -0.7431 -1.1627
 3923SOL     OW12084   2.480   3.084   0.267  0.4025  0.0624 -0.0125
 3923SOL    HW112085   2.426   3.121   0.196  0.4984  0.3006  0.0380
 3923SOL    HW212086   2.558   3.051   0.223  0.2383 -0.2418 -0.0801
 3924SOL     OW12087   4.797   1.054   5.369  0.2306 -0.1524  0.2009
 3924SOL    HW112088   4.740   1.131   5.363 -2.3755 -2.0150 -0.9059
 3924SOL    HW212089   4.774   1.013   5.452  0.4275 -0.5705  0.0545
 3925SOL     OW12090   5.467   1.502   2.691 -0.2093  0.2371  0.0051
 3925SOL    HW112091   5.467   1.579   2.748 -0.8154 -0.0883  0.4596
 3925SOL    HW212092   5.408   1.525   2.619  0.1754  0.4647 -0.2420
 3926SOL     OW12093   5.457   1.265   2.855 -0.0677 -0.1828 -0.6739
 3926SOL    HW112094   5.505   1.276   2.936  0.5493 -2.7359 -0.6187
 3926SOL    HW212095   5.484   1.339   2.801  0.5042  0.8354  0.9430
 3927SOL     OW12096   4.575   0.833   1.815  0.1639  0.1271  0.2485
 3927SOL    HW112097   4.666   0.803   1.821  0.3761  0.3203 -1.4743
 3927SOL    HW212098   4.550   0.815   1.725 -1.6481 -0.2438  0.7974
 3928SOL     OW12099   1.941   2.799   2.098  0.3276 -0.2091  0.4774
 3928SOL    HW112100   1.882   2.724   2.110  0.4085 -0.3054  0.2705
 3928SOL    HW212101   1.904   2.867   2.154  1.1327 -0.9050  1.9185
 3929SOL     OW12102   0.306   1.753   2.222  0.6456  0.8197 -0.2340
 3929SOL    HW112103   0.365   1.728   2.293  1.7680  0.1203 -1.3847
 3929SOL    HW212104   0.351   1.728   2.142 -1.1464  0.3942 -1.1793
 3930SOL     OW12105   3.943   2.085   2.535  0.0131 -0.0915 -0.2397
 3930SOL    HW112106   3.995   2.156   2.573  0.0187  0.0460 -0.5057
 3930SOL    HW212107   3.913   2.119   2.451 -1.1555  0.1412  0.2398
 3931SOL     OW12108   1.322   2.294   3.320  0.3951  0.0883 -0.2415
 3931SOL    HW112109   1.322   2.198   3.316  2.3484  0.0905 -1.8048
 3931SOL    HW212110   1.318   2.314   3.414 -2.3772 -1.4149  0.0677
 3932SOL     OW12111   3.930   1.770   3.570  0.1832  0.0265  0.2922
 3932SOL    HW112112   3.952   1.827   3.643 -1.0333 -0.8148  1.3415
 3932SOL    HW212113   3.886   1.696   3.609  2.1313 -1.9316 -0.9745
 3933SOL     OW12114   4.961   4.060   1.741 -0.3582 -0.1416  0.1016
 3933SOL    HW112115   4.911   4.021   1.813 -0.7732 -0.5706 -0.4139
 3933SOL    HW212116   4.953   4.155   1.755 -0.7221 -0.2179  0.4271
 3934SOL     OW12117   4.858   4.498   2.078  0.4940  0.2976 -0.4727
 3934SOL    HW112118   4.942   4.462   2.107  0.2327  1.0671  1.3525
 3934SOL    HW212119   4.792   4.443   2.119  0.0860  0.4137 -0.9592
 3935SOL     OW12120   4.681   0.179   5.521  0.2882  0.6780  0.7324
 3935SOL    HW112121   4.654   0.115   5.454  0.1874  1.7453 -0.2680
 3935SOL    HW212122   4.761   0.217   5.488 -0.5380  2.2793  0.4741
 3936SOL     OW12123   3.320   0.430   2.740 -0.4368 -0.1821  0.5412
 3936SOL    HW112124   3.227   0.414   2.727 -1.1847  4.1886 -1.0171
 3936SOL    HW212125   3.327   0.466   2.828 -0.3710  0.2989  0.3423
 3937SOL     OW12126   3.545   0.638   2.611  0.1355  0.1881  0.0426
 3937SOL    HW112127   3.478   0.642   2.542  1.2482  1.4936 -1.0261
 3937SOL    HW212128   3.595   0.559   2.590 -0.4139 -0.2130  0.2200
 3938SOL     OW12129   2.530   4.327   4.894  0.1286 -0.0659  0.0731
 3938SOL    HW112130   2.464   4.383   4.936 -0.5139 -0.5155 -0.3227
 3938SOL    HW212131   2.610   4.379   4.897  0.0590 -0.0122  1.6923
 3939SOL     OW12132   3.956   2.774   0.954  0.1573 -0.8779 -0.2542
 3939SOL    HW112133   3.966   2.678   0.952 -1.3392 -1.0444 -0.7278
 3939SOL    HW212134   4.032   2.807   0.907 -0.4164 -1.9574 -2.0561
 3940SOL     OW12135   3.077   0.732   1.785  0.0953 -0.2673  0.4393
 3940SOL    HW112136   2.987   0.765   1.778  0.7804  2.3870  2.5908
 3940SOL    HW212137   3.123   0.774   1.712 -0.4220 -1.9817 -0.9393
 3941SOL     OW12138   0.399   3.122   2.695 -0.2205  0.1224 -0.7418
 3941SOL    HW112139   0.401   3.215   2.718 -2.5074  0.7923 -2.8405
 3941SOL    HW212140   0.313   3.092   2.724 -0.1049 -0.9570 -1.4590
 3942SOL     OW12141   4.954   1.118   3.707 -0.5404  0.4960 -0.2908
 3942SOL    HW112142   5.019   1.160   3.764 -0.9869  0.5675  0.1719
 3942SOL    HW212143   4.915   1.190   3.657 -1.2836  0.6429  0.4795
 3943SOL     OW12144   3.412   2.759   0.826 -0.3918 -0.3523  0.0047
 3943SOL    HW112145   3.490   2.742   0.879 -0.6640 -2.1101 -0.1059
 3943SOL    HW212146   3.443   2.754   0.736 -0.7823 -2.2525 -0.0804
 3944SOL     OW12147   1.635   5.006   3.970  0.4536  0.4367 -0.2626
 3944SOL    HW112148   1.546   5.037   3.950 -0.0227  2.6123  4.0164
 3944SOL    HW212149   1.692   5.080   3.950  0.5644  0.8771  1.5351
 3945SOL     OW12150   4.138   3.913   3.491 -0.6285 -0.7700  0.0203
 3945SOL    HW112151   4.078   3.916   3.417 -0.1689 -3.5728 -0.5841
 3945SOL    HW212152   4.084   3.934   3.567 -1.2801  1.3478 -0.9555
 3946SOL     OW12153   1.312   3.626   0.965  0.2495 -0.4129  0.4473
 3946SOL    HW112154   1.360   3.565   0.909  0.0535  0.3343 -0.5528
 3946SOL    HW212155   1.369   3.640   1.040  1.0166 -0.5651 -0.1020
 3947SOL     OW12156   3.498   4.131   0.827  0.1575  0.1214  0.0159
 3947SOL    HW112157   3.416   4.098   0.793  0.7040 -1.1644 -0.0960
 3947SOL    HW212158   3.546   4.163   0.750  0.1022  0.1202 -0.0187
 3948SOL     OW12159   4.990   4.505   0.476  0.7194 -0.6942 -0.2880
 3948SOL    HW112160   5.069   4.451   0.478  1.8550  0.8251 -1.5826
 3948SOL    HW212161   5.019   4.590   0.511 -0.2165  0.0236 -1.2146
 3949SOL     OW12162   4.661   0.129   0.303  0.0811 -0.4025  0.1054
 3949SOL    HW112163   4.696   0.092   0.384 -0.4337 -0.4479  0.3121
 3949SOL    HW212164   4.629   0.053   0.254  1.2594 -0.4833 -0.5823
 3950SOL     OW12165   2.858   3.059   5.101  0.2488 -0.1068 -0.0374
 3950SOL    HW112166   2.934   3.003   5.121  0.0610 -0.1025  0.7153
 3950SOL    HW212167   2.891   3.148   5.114  0.2832 -0.0783 -0.3127
 3951SOL     OW12168   0.666   3.405   3.814 -0.2055  0.2454  0.3713
 3951SOL    HW112169   0.676   3.495   3.846  0.4481  0.2624  0.1376
 3951SOL    HW212170   0.746   3.388   3.765 -1.0407  0.1079 -0.9872
 3952SOL     OW12171   2.082   0.767   2.268  0.2408 -0.4914  0.2753
 3952SOL    HW112172   2.014   0.728   2.324  1.0665 -0.4474  1.3575
 3952SOL    HW212173   2.089   0.857   2.298 -0.0923 -0.1441 -0.6882
 3953SOL     OW12174   3.627   1.876   0.794  0.6233  0.0868  0.2211
 3953SOL    HW112175   3.582   1.910   0.871 -0.9807 -2.2395  0.3911
 3953SOL    HW212176   3.565   1.816   0.754  2.7256 -1.4712 -0.9065
 3954SOL     OW12177   2.066   1.393   1.943 -0.0533  0.1548  0.3566
 3954SOL    HW112178   1.994   1.394   1.881  0.8458  2.5752 -0.7538
 3954SOL    HW212179   2.141   1.361   1.892  0.9548  3.2158 -0.2436
 3955SOL     OW12180   0.949   5.527   0.561 -0.1798 -0.5026 -0.1011
 3955SOL    HW112181   0.869   5.576   0.544  0.9333  1.5199  0.2504
 3955SOL    HW212182   0.955   5.464   0.489 -0.3670  1.5999 -2.0342
 3956SOL     OW12183   2.665   1.557   2.538 -0.0726 -0.4315  0.2295
 3956SOL    HW112184   2.692   1.471   2.569 -0.8828 -0.8995 -0.3194
 3956SOL    HW212185   2.617   1.596   2.611  1.1189 -0.0388  0.8208
 3957SOL     OW12186   5.218   2.208   3.746 -0.5829  0.2994 -0.2637
 3957SOL    HW112187   5.296   2.153   3.732 -0.1419  0.9182 -0.2679
 3957SOL    HW212188   5.172   2.164   3.818 -0.2679 -0.1145 -0.3069
 3958SOL     OW12189   3.577   0.860   5.044 -0.0904 -0.1703 -0.0775
 3958SOL    HW112190   3.530   0.784   5.078  0.1902 -0.7006 -0.8669
 3958SOL    HW212191   3.512   0.931   5.047 -0.3339 -0.4159  0.7153
 3959SOL     OW12192   5.324   0.026   4.628 -0.1255 -0.5491 -0.3587
 3959SOL    HW112193   5.403   0.012   4.576  0.3688 -0.9578  0.4641
 3959SOL    HW212194   5.264  -0.043   4.599  0.4955 -1.3670  0.2540
 3960SOL     OW12195   0.860   0.001   2.959  0.3873  0.3240 -0.2036
 3960SOL    HW112196   0.787  -0.051   2.992  1.0279 -1.8659 -1.9991
 3960SOL    HW212197   0.827   0.041   2.879  0.9507 -0.1697 -0.6908
 3961SOL     OW12198   0.452   1.921   1.641 -0.2956  0.1888  0.0173
 3961SOL    HW112199   0.472   1.831   1.619  1.1411  0.1151  1.3858
 3961SOL    HW212200   0.440   1.965   1.557  2.5044 -0.5380 -0.8676
 3962SOL     OW12201   4.762   4.429   0.625  0.3411  0.2119  0.1066
 3962SOL    HW112202   4.842   4.469   0.592  0.2661  0.5890  0.3653
 3962SOL    HW212203   4.734   4.370   0.556  0.8405  0.0779  0.0130
 3963SOL     OW12204   1.408   1.778   3.963  0.0408 -0.1713 -0.1578
 3963SOL    HW112205   1.437   1.752   3.876  1.6626 -1.2942  0.6727
 3963SOL    HW212206   1.477   1.836   3.995  0.1359 -0.8359  0.8790
 3964SOL     OW12207   5.471   2.831   1.381 -0.3025  0.0380 -0.0708
 3964SOL    HW112208   5.548   2.887   1.368 -0.9653  1.0748  0.3977
 3964SOL    HW212209   5.475   2.769   1.308  0.8881  0.1682 -0.1436
 3965SOL     OW12210   2.964   3.248   1.585  0.3096 -0.6832 -0.0725
 3965SOL    HW112211   2.917   3.179   1.538 -1.0906  0.9261 -1.1510
 3965SOL    HW212212   2.961   3.323   1.526  0.2127  0.8443  1.7975
 3966SOL     OW12213   1.638   1.286   3.367  0.4910  0.3365 -0.4715
 3966SOL    HW112214   1.659   1.378   3.385 -1.0292  0.6808 -0.3679
 3966SOL    HW212215   1.616   1.249   3.452  2.1480 -0.4481 -0.3385
 3967SOL     OW12216   0.835   1.537   4.387 -0.2066  0.0529  0.0822
 3967SOL    HW112217   0.817   1.444   4.372  1.5683 -0.3745  0.4478
 3967SOL    HW212218   0.893   1.562   4.315  0.8134  0.3984  1.0171
 3968SOL     OW12219   1.493   1.140   3.957  0.3987  0.5278 -0.0719
 3968SOL    HW112220   1.548   1.105   4.028 -0.4229  1.7515  1.2294
 3968SOL    HW212221   1.467   1.064   3.906  1.6732 -0.2954  0.4710
 3969SOL     OW12222   2.109   1.311   3.991 -0.1550 -0.1661  0.3036
 3969SOL    HW112223   2.126   1.236   3.934 -0.0238  0.3469 -0.3413
 3969SOL    HW212224   2.059   1.274   4.064  1.3077 -1.1875  0.8388
 3970SOL     OW12225   3.098   0.483   0.602 -0.0841 -0.3925 -0.1417
 3970SOL    HW112226   3.167   0.537   0.641 -0.3237  0.0335 -0.3033
 3970SOL    HW212227   3.116   0.394   0.634  1.3112 -0.5258 -1.2145
 3971SOL     OW12228   5.410   5.525   0.035 -0.1258 -0.0394  0.2077
 3971SOL    HW112229   5.410   5.619   0.055 -1.8522 -0.0642  0.4488
 3971SOL    HW212230   5.405   5.482   0.120  1.4887 -0.4008  0.1452
 3972SOL     OW12231   2.657   3.808   3.978  0.1234 -0.4680 -0.0084
 3972SOL    HW112232   2.644   3.857   4.059 -0.1532  0.1090 -0.4040
 3972SOL    HW212233   2.653   3.716   4.006 -2.7249 -0.3514  0.2464
 3973SOL     OW12234   4.555   2.838   3.385  0.4396 -0.6463 -0.1225
 3973SOL    HW112235   4.616   2.828   3.312  2.7169 -1.1959  1.7143
 3973SOL    HW212236   4.498   2.761   3.380  1.4669 -1.4072 -0.5701
 3974SOL     OW12237   4.545   5.313   3.247 -0.1018 -0.3643 -0.1371
 3974SOL    HW112238   4.539   5.399   3.290  0.2134 -0.1960 -0.4254
 3974SOL    HW212239   4.584   5.332   3.162  2.0095 -1.0679  0.6081
 3975SOL     OW12240   0.568   3.195   3.566 -0.2176  0.3097  0.0194
 3975SOL    HW112241   0.498   3.174   3.505 -0.7732  1.2881  0.2938
 3975SOL    HW212242   0.606   3.276   3.532  0.8042 -0.2082 -0.1363
 3976SOL     OW12243   0.328   1.406   3.746 -0.2475 -0.3797 -0.4040
 3976SOL    HW112244   0.376   1.434   3.824 -0.0061  1.6430 -1.2306
 3976SOL    HW212245   0.297   1.318   3.767  0.6740 -0.2715  1.5707
 3977SOL     OW12246   0.185   4.215   1.544 -0.3574  0.6491 -0.1004
 3977SOL    HW112247   0.111   4.164   1.510 -0.8040  1.6428 -0.6680
 3977SOL    HW212248   0.211   4.170   1.624 -1.4652  0.1823  0.0096
 3978SOL     OW12249   3.568   0.944   2.344 -0.1997 -0.5513  0.0951
 3978SOL    HW112250   3.595   0.923   2.254 -2.3922  0.7019 -0.9196
 3978SOL    HW212251   3.572   1.039   2.349  0.7208 -0.6318  1.6523
 3979SOL     OW12252   2.715   0.743   5.437  0.3114  0.0876  0.2199
 3979SOL    HW112253   2.810   0.739   5.440  0.2800 -0.3828  0.6785
 3979SOL    HW212254   2.696   0.805   5.366  0.9647  1.7229  1.4239
 3980SOL     OW12255   1.300   3.777   4.223  0.5115  0.2942  0.1942
 3980SOL    HW112256   1.294   3.692   4.178 -1.8671  0.4384  0.0885
 3980SOL    HW212257   1.291   3.841   4.153  1.9240  0.6686  0.3232
 3981SOL     OW12258   3.608   0.168   0.182  0.7007  0.4717  0.3999
 3981SOL    HW112259   3.695   0.207   0.184  2.0771 -2.3849  1.7141
 3981SOL    HW212260   3.580   0.163   0.273  0.9415 -2.1156  0.4203
 3982SOL     OW12261   3.635   2.783   3.466 -0.2372  0.0416  0.1231
 3982SOL    HW112262   3.606   2.696   3.494 -0.9872 -0.0599 -0.9188
 3982SOL    HW212263   3.555   2.827   3.437  0.3934  0.3710 -1.1942
 3983SOL     OW12264   0.229   2.440   0.380  0.0545  0.0539  0.1207
 3983SOL    HW112265   0.133   2.439   0.380  0.0320 -1.8608 -0.2890
 3983SOL    HW212266   0.253   2.426   0.471 -0.1236 -1.3357 -0.0089
 3984SOL     OW12267   3.059   1.472   3.363 -0.6373 -0.6461  0.6920
 3984SOL    HW112268   2.971   1.506   3.379  0.3724  1.6959  1.6837
 3984SOL    HW212269   3.096   1.531   3.298  0.3213 -1.3841  0.5585
 3985SOL     OW12270   5.276   0.194   4.921  0.4022 -0.1990  0.3292
 3985SOL    HW112271   5.221   0.179   4.844  0.4200 -0.9169  0.4495
 3985SOL    HW212272   5.348   0.132   4.911  1.1034  0.6115  0.2617
 3986SOL     OW12273   4.526   0.447   1.343 -0.4995 -0.2457 -0.1016
 3986SOL    HW112274   4.462   0.517   1.360 -1.2880 -1.0524  0.3124
 3986SOL    HW212275   4.609   0.483   1.374 -0.6603  0.9579 -0.9575
 3987SOL     OW12276   1.824   1.258   4.847 -0.0223 -0.4561  0.0034
 3987SOL    HW112277   1.741   1.287   4.810 -0.6372 -2.6590 -0.4765
 3987SOL    HW212278   1.809   1.253   4.941 -0.5572 -1.1910 -0.1182
 3988SOL     OW12279   3.302   0.913   1.201 -0.4682  1.2855  0.4937
 3988SOL    HW112280   3.347   0.989   1.164  0.5242 -1.0756 -3.9561
 3988SOL    HW212281   3.371   0.862   1.243 -0.9644  2.3043  2.6381
 3989SOL     OW12282   1.073   3.701   1.063  0.4530  0.0532 -0.0177
 3989SOL    HW112283   1.158   3.685   1.022  0.8005  0.5441  0.5082
 3989SOL    HW212284   1.037   3.614   1.077  1.2226 -0.1910  0.4949
 3990SOL     OW12285   3.548   2.965   4.400 -0.0075 -0.7980  0.2799
 3990SOL    HW112286   3.583   2.996   4.483 -0.6291 -0.5649  0.4627
 3990SOL    HW212287   3.577   2.875   4.394 -0.9602 -1.1997  1.3353
 3991SOL     OW12288   4.268   3.002   1.618  0.5356 -0.4171  0.3326
 3991SOL    HW112289   4.230   3.024   1.703  0.9156 -0.7882  0.6051
 3991SOL    HW212290   4.310   2.917   1.633  0.6397 -0.4616 -0.2150
 3992SOL     OW12291   2.421   4.645   3.321  0.6725  0.4287  0.7265
 3992SOL    HW112292   2.459   4.578   3.264  1.1913  0.9214  0.4871
 3992SOL    HW212293   2.419   4.724   3.267 -0.3190  0.5096  0.8724
 3993SOL     OW12294   0.432   1.311   1.830  0.0769  0.4899 -0.7340
 3993SOL    HW112295   0.491   1.345   1.898 -1.5106 -0.6911  1.3472
 3993SOL    HW212296   0.380   1.245   1.875 -0.8607 -0.5709 -3.2317
 3994SOL     OW12297   0.009   1.496   2.318 -0.0851  0.4710  0.1933
 3994SOL    HW112298   0.001   1.437   2.242 -2.0524  0.4988  0.3159
 3994SOL    HW212299   0.019   1.437   2.393  2.2609  0.4528 -0.0760
 3995SOL     OW12300   0.360   4.493   5.076 -0.0946 -0.3248  0.8309
 3995SOL    HW112301   0.354   4.518   5.168 -0.3661 -0.9954  0.9972
 3995SOL    HW212302   0.275   4.455   5.055 -0.2754  0.4432  0.1114
 3996SOL     OW12303   3.431   4.620   3.111 -0.5772  0.4156 -0.3576
 3996SOL    HW112304   3.393   4.706   3.093  2.1430  1.3260 -2.5593
 3996SOL    HW212305   3.485   4.634   3.189 -1.9092  0.0275  0.6740
 3997SOL     OW12306   4.326   3.323   1.678  0.3340 -0.3911  0.4414
 3997SOL    HW112307   4.294   3.294   1.763 -0.1484 -2.3862 -0.3544
 3997SOL    HW212308   4.265   3.284   1.615  0.7184  0.9778 -0.8289
 3998SOL     OW12309   3.083   0.199   2.531  0.2285  0.3037  0.1106
 3998SOL    HW112310   3.160   0.233   2.487  0.3850 -0.3973 -0.1758
 3998SOL    HW212311   3.117   0.130   2.589 -0.2510 -0.5040 -0.5487
 3999SOL     OW12312   3.643   2.066   4.432  0.2165  0.4370 -0.6502
 3999SOL    HW112313   3.548   2.056   4.424  0.3322  0.4416 -2.5432
 3999SOL    HW212314   3.668   2.118   4.355  1.9176 -0.7810 -0.9802
 4000SOL     OW12315   0.084   1.340   2.535  0.1417 -0.0924  0.1294
 4000SOL    HW112316   0.030   1.396   2.591 -1.7412 -0.9737 -0.6959
 4000SOL    HW212317   0.174   1.361   2.559 -0.5395 -0.0672  3.1246
 4001SOL     OW12318   5.303   4.251   2.862 -0.2367  0.1441  0.4633
 4001SOL    HW112319   5.268   4.208   2.940 -2.4784  1.0547  0.0365
 4001SOL    HW212320   5.275   4.196   2.789  0.3371  0.2273  0.1706
 4002SOL     OW12321   2.363   4.956   3.439  0.1375 -0.5648  0.1884
 4002SOL    HW112322   2.397   4.903   3.511  0.5862  0.3727  0.6855
 4002SOL    HW212323   2.441   4.996   3.400 -0.3094  1.2293  1.0399
 4003SOL     OW12324   4.332   0.262   1.295 -0.2168 -0.1343 -0.4899
 4003SOL    HW112325   4.317   0.299   1.208  0.5331 -2.1172 -1.5325
 4003SOL    HW212326   4.410   0.307   1.327 -0.1305  0.1715 -1.1145
 4004SOL     OW12327   4.702   2.642   1.475 -0.1174  0.5765 -0.0948
 4004SOL    HW112328   4.613   2.615   1.494 -0.3227  1.7333  0.6667
 4004SOL    HW212329   4.725   2.703   1.545  0.5699  1.8177 -1.3514
 4005SOL     OW12330   4.051   1.471   2.360  0.0709 -0.8940 -0.7599
 4005SOL    HW112331   3.988   1.517   2.416  1.1944  0.6605 -0.6911
 4005SOL    HW212332   4.073   1.391   2.408 -1.6039 -1.3230 -0.6522
 4006SOL     OW12333   0.526   0.716   5.304 -0.0128  0.2139  0.5369
 4006SOL    HW112334   0.445   0.753   5.267 -0.8786 -0.3608  1.7812
 4006SOL    HW212335   0.585   0.791   5.310 -0.7394  0.8233  0.3503
 4007SOL     OW12336   2.658   5.093   1.949  0.2984 -0.4343  0.0813
 4007SOL    HW112337   2.731   5.154   1.963  1.4657 -1.3790 -1.5309
 4007SOL    HW212338   2.663   5.033   2.023  2.6845 -1.8823 -1.1439
 4008SOL     OW12339   4.752   5.058   4.681  0.2203 -0.9437  0.3129
 4008SOL    HW112340   4.676   5.050   4.739  0.7437 -0.9413  1.0121
 4008SOL    HW212341   4.714   5.068   4.593 -0.7585  3.1282  0.9989
 4009SOL     OW12342   2.088   4.366   2.189 -0.1759  0.3357  0.1170
 4009SOL    HW112343   2.023   4.317   2.241  0.4658 -0.6900 -0.0047
 4009SOL    HW212344   2.106   4.444   2.241 -0.1581 -0.2720  1.0598
 4010SOL     OW12345   3.367   1.855   4.980 -0.2133  0.1830 -0.1382
 4010SOL    HW112346   3.401   1.867   4.891 -0.0413 -0.2547 -0.1340
 4010SOL    HW212347   3.273   1.842   4.969 -0.4211  1.5380 -0.1411
 4011SOL     OW12348   4.791   4.828   5.291 -0.6640  0.7149 -0.3584
 4011SOL    HW112349   4.808   4.741   5.257  0.3762  0.5715  0.4757
 4011SOL    HW212350   4.699   4.845   5.270 -0.6492 -0.2385 -1.2492
 4012SOL     OW12351   4.561   5.211   2.680  0.6364 -0.8795 -0.1149
 4012SOL    HW112352   4.560   5.304   2.705  0.8607 -0.8107 -0.3492
 4012SOL    HW212353   4.643   5.201   2.630  0.0087 -0.9186 -1.1656
 4013SOL     OW12354   0.511   0.509   5.107 -0.0138 -0.7370 -0.3217
 4013SOL    HW112355   0.417   0.497   5.100 -0.2848  0.6554  0.4406
 4013SOL    HW212356   0.522   0.561   5.187  1.0850  2.1480 -2.1705
 4014SOL     OW12357   4.687   1.598   4.946  0.1117 -0.0573  0.0042
 4014SOL    HW112358   4.769   1.642   4.971  0.1693  0.8034 -1.5177
 4014SOL    HW212359   4.699   1.578   4.853 -1.9657  1.4287 -0.6545
 4015SOL     OW12360   1.244   3.933   5.159 -0.2920  0.2283 -0.2155
 4015SOL    HW112361   1.288   3.906   5.240 -0.3560 -0.6065 -0.4521
 4015SOL    HW212362   1.251   3.857   5.102  0.2257  0.9850 -1.2007
 4016SOL     OW12363   2.219   5.164   1.403 -0.1971 -0.0255  0.1361
 4016SOL    HW112364   2.124   5.156   1.404 -0.3569  1.4984  1.5591
 4016SOL    HW212365   2.249   5.091   1.349 -2.0718 -1.4554  0.9125
 4017SOL     OW12366   0.765   0.048   5.367  0.2997 -0.4341  0.2263
 4017SOL    HW112367   0.720   0.002   5.438  0.7183 -0.7255  0.3076
 4017SOL    HW212368   0.695   0.076   5.308 -0.4039  2.3587  2.1754
 4018SOL     OW12369   1.093   4.851   5.378  0.2837 -0.0301  0.2029
 4018SOL    HW112370   1.072   4.906   5.454  3.0385  1.5303 -0.0467
 4018SOL    HW212371   1.171   4.890   5.340  0.4420 -2.2270 -2.0208
 4019SOL     OW12372   3.339   2.377   2.629  0.2956  0.5153  0.5420
 4019SOL    HW112373   3.255   2.357   2.669  0.2672 -0.4495  0.0335
 4019SOL    HW212374   3.327   2.462   2.587  0.0837  1.1631  1.8678
 4020SOL     OW12375   3.967   1.731   1.964 -0.1796 -0.3805 -0.3183
 4020SOL    HW112376   3.929   1.691   1.886  1.5448  0.1242 -1.4768
 4020SOL    HW212377   3.977   1.824   1.941 -0.4609 -0.0338  0.8527
 4021SOL     OW12378   1.096   2.947   1.042 -0.9055 -0.3785  0.4812
 4021SOL    HW112379   1.149   2.894   0.982 -0.7463 -0.3575  0.6023
 4021SOL    HW212380   1.158   3.007   1.082 -1.2591  0.7049 -0.5099
 4022SOL     OW12381   3.277   1.272   3.254 -0.1097  0.0482  0.2412
 4022SOL    HW112382   3.305   1.236   3.339 -1.3770  1.1038  1.1570
 4022SOL    HW212383   3.224   1.349   3.277 -0.5143  0.3384 -1.5162
 4023SOL     OW12384   4.714   5.239   0.007 -0.0808  0.2787  0.0300
 4023SOL    HW112385   4.629   5.195   0.007 -0.2252  0.5539 -0.1495
 4023SOL    HW212386   4.775   5.174  -0.026 -0.2119  0.0617  0.2135
 4024SOL     OW12387   5.532   2.000   3.429  0.0589 -0.4419  0.2475
 4024SOL    HW112388   5.514   2.084   3.387 -0.2587 -0.6718 -0.0776
 4024SOL    HW212389   5.622   2.008   3.461 -0.2262  0.3155  0.9172
 4025SOL     OW12390   1.662   2.057   2.608  0.7186  0.1718 -0.2607
 4025SOL    HW112391   1.601   2.110   2.660 -0.2654 -0.5029 -0.6928
 4025SOL    HW212392   1.636   2.073   2.517  0.4476 -0.9872 -0.3997
 4026SOL     OW12393   0.335   4.584   2.047  0.0352 -0.3556 -0.6122
 4026SOL    HW112394   0.421   4.581   2.004 -0.7530  0.7106 -2.3718
 4026SOL    HW212395   0.319   4.678   2.061 -1.3714 -0.4456 -1.4845
 4027SOL     OW12396   1.214   4.101   4.147  0.3076  0.0073 -0.2440
 4027SOL    HW112397   1.127   4.142   4.144 -0.3878 -1.2741  1.1699
 4027SOL    HW212398   1.212   4.035   4.078  0.3857  0.3514 -0.5840
 4028SOL     OW12399   1.158   1.804   3.125 -0.0323 -0.4721  0.4468
 4028SOL    HW112400   1.089   1.745   3.096 -1.4096  0.4154  1.7162
 4028SOL    HW212401   1.145   1.883   3.072  1.9984 -1.3455 -1.4712
 4029SOL     OW12402   0.414   2.194   1.026 -0.4313 -0.1192 -0.0267
 4029SOL    HW112403   0.387   2.257   1.093 -0.4129  1.2672 -1.2688
 4029SOL    HW212404   0.509   2.193   1.031 -0.4690 -0.7907  0.6371
 4030SOL     OW12405   2.188   3.723   3.522 -0.6718  0.4338  0.0761
 4030SOL    HW112406   2.221   3.689   3.605 -1.4713 -0.2458  0.1307
 4030SOL    HW212407   2.225   3.665   3.456 -0.0488  0.9655 -0.0536
 4031SOL     OW12408   4.438   0.201   2.598 -0.0684 -0.0479  0.1920
 4031SOL    HW112409   4.490   0.251   2.535  0.6396 -0.4849  0.4072
 4031SOL    HW212410   4.499   0.183   2.670  0.0563 -2.1376 -0.3523
 4032SOL     OW12411   4.983   0.738   3.021 -0.2122 -0.0065 -0.2437
 4032SOL    HW112412   5.054   0.683   2.989 -0.4751 -0.3396 -0.2632
 4032SOL    HW212413   4.905   0.683   3.014 -0.6588  0.7178 -1.2502
 4033SOL     OW12414   3.999   5.382   0.792 -0.0667  0.4345 -0.6409
 4033SOL    HW112415   4.025   5.366   0.701 -0.9331  2.3010 -1.2654
 4033SOL    HW212416   3.922   5.438   0.785  1.2449  2.6600  1.2231
 4034SOL     OW12417   0.532   4.211   1.153  0.0289 -0.4388 -0.0673
 4034SOL    HW112418   0.595   4.273   1.191  1.0830 -2.1769  1.2157
 4034SOL    HW212419   0.450   4.231   1.197 -0.3701  1.7695 -1.6500
 4035SOL     OW12420   2.686   1.705   4.941 -0.1557 -0.2180 -0.3306
 4035SOL    HW112421   2.593   1.707   4.964  0.6923  1.0312  4.0122
 4035SOL    HW212422   2.719   1.626   4.985  1.1683  0.5268  0.0607
 4036SOL     OW12423   4.589   5.553   5.332  0.4353 -0.6289  0.3871
 4036SOL    HW112424   4.541   5.471   5.322  1.0054 -0.8681 -0.4448
 4036SOL    HW212425   4.535   5.618   5.285  1.1376 -0.9945 -0.9877
 4037SOL     OW12426   1.558   0.272   3.315  0.2158 -0.4673 -0.1418
 4037SOL    HW112427   1.537   0.352   3.267  0.0016 -0.2671  0.2733
 4037SOL    HW212428   1.643   0.289   3.355  0.7185 -0.8991 -1.0119
 4038SOL     OW12429   4.329   1.142   4.057 -0.2137  0.3635  0.1428
 4038SOL    HW112430   4.320   1.215   3.997 -0.7701  0.2008  0.0243
 4038SOL    HW212431   4.246   1.139   4.104  0.3405  0.7192  1.1850
 4039SOL     OW12432   0.277   0.073   0.169  0.0018  0.4817  0.0989
 4039SOL    HW112433   0.306   0.139   0.106 -1.2741  1.9665  0.9795
 4039SOL    HW212434   0.315   0.100   0.252  1.4864 -1.3366  0.0797
 4040SOL     OW12435   4.849   4.481   0.066  0.1608 -0.4126  0.4873
 4040SOL    HW112436   4.880   4.414   0.005 -0.8699 -1.8582  1.4767
 4040SOL    HW212437   4.927   4.506   0.116  0.1417 -2.9749  1.9973
 4041SOL     OW12438   0.083   3.280   5.308 -0.3587  0.3355  0.5626
 4041SOL    HW112439  -0.002   3.255   5.342 -0.5983  0.7860  0.3121
 4041SOL    HW212440   0.139   3.287   5.385 -0.3939 -0.5323  0.6730
 4042SOL     OW12441   3.377   1.628   0.477 -0.2748 -0.4152  0.0586
 4042SOL    HW112442   3.379   1.712   0.431 -0.7509  0.5317  1.6812
 4042SOL    HW212443   3.322   1.572   0.422 -0.5110  0.5551 -0.7185
 4043SOL     OW12444   3.480   0.657   1.860  0.1110 -0.8912 -0.1119
 4043SOL    HW112445   3.445   0.586   1.915 -0.2116 -0.2881  0.4678
 4043SOL    HW212446   3.521   0.611   1.787 -0.7668 -1.6579 -0.1488
 4044SOL     OW12447   3.786   1.461   5.418 -0.2869  0.0584  0.0670
 4044SOL    HW112448   3.777   1.405   5.494 -1.2279  0.1908  0.0698
 4044SOL    HW212449   3.879   1.485   5.416  0.2768 -1.9415 -0.2661
 4045SOL     OW12450   4.463   4.017   1.184 -0.1252 -0.6669 -0.4439
 4045SOL    HW112451   4.379   3.973   1.193 -1.1451  1.3940  0.9610
 4045SOL    HW212452   4.458   4.063   1.100 -0.6792 -0.0168 -0.0586
 4046SOL     OW12453   4.031   0.062   2.779  0.5448 -0.8562 -0.3316
 4046SOL    HW112454   3.944   0.032   2.755 -0.0604  1.0928 -0.7790
 4046SOL    HW212455   4.021   0.097   2.868  0.9534 -0.9830 -0.2334
 4047SOL     OW12456   2.490   3.891   3.777 -0.4800 -0.2288  0.8386
 4047SOL    HW112457   2.548   3.873   3.852 -0.6840 -1.8403  0.6500
 4047SOL    HW212458   2.480   3.986   3.777  0.6587 -0.0713  2.0086
 4048SOL     OW12459   2.725   0.729   4.219  0.6513  0.3487  0.3870
 4048SOL    HW112460   2.700   0.788   4.290 -1.3387 -0.3356  0.3057
 4048SOL    HW212461   2.818   0.712   4.234  1.7958  4.7553 -0.5349
 4049SOL     OW12462   0.275   5.131   0.606  0.5987 -0.8769  0.1543
 4049SOL    HW112463   0.344   5.082   0.562 -0.4015 -0.6165 -1.8154
 4049SOL    HW212464   0.230   5.178   0.535 -2.3755 -1.9928  1.1458
 4050SOL     OW12465   1.059   2.136   0.037  0.4241 -0.3055 -0.4045
 4050SOL    HW112466   1.074   2.162  -0.053  1.5673  0.4797 -0.0159
 4050SOL    HW212467   1.147   2.127   0.074 -0.0297 -0.0956  0.7677
 4051SOL     OW12468   3.042   0.573   1.001 -0.0085  0.0238 -0.0646
 4051SOL    HW112469   2.990   0.582   1.082 -2.0681  1.6993 -1.4600
 4051SOL    HW212470   3.131   0.597   1.027 -0.3039 -0.7925  1.9603
 4052SOL     OW12471   4.780   5.189   5.227  0.0974  0.7522 -0.2018
 4052SOL    HW112472   4.805   5.180   5.319 -0.3076  2.0640  0.0544
 4052SOL    HW212473   4.827   5.118   5.183 -1.6669 -1.5438  1.3450
 4053SOL     OW12474   5.398   2.784   3.436 -0.5132 -0.2741 -0.6136
 4053SOL    HW112475   5.323   2.725   3.430 -0.2518 -0.6291 -0.4945
 4053SOL    HW212476   5.473   2.729   3.410 -0.2786  0.0313 -0.5865
 4054SOL     OW12477   2.250   0.453   4.517 -0.3971  0.1522 -0.5560
 4054SOL    HW112478   2.282   0.385   4.576  2.7915  1.6872 -0.3013
 4054SOL    HW212479   2.269   0.419   4.429  0.6206  0.3875 -0.4450
 4055SOL     OW12480   2.971   2.575   4.551  0.0704  0.2201 -0.1968
 4055SOL    HW112481   2.973   2.629   4.631 -1.1817 -0.6917  0.4726
 4055SOL    HW212482   2.922   2.497   4.576 -0.3818 -0.0659 -1.8857
 4056SOL     OW12483   2.683   0.748   2.279  0.2371  0.3738  0.4680
 4056SOL    HW112484   2.645   0.795   2.204  2.0633 -1.9455 -2.1052
 4056SOL    HW212485   2.617   0.683   2.302  0.6107 -0.5111 -0.8293
 4057SOL     OW12486   1.753   5.338   4.106 -0.4359 -0.3696 -0.5091
 4057SOL    HW112487   1.723   5.319   4.018  0.2199  1.4534 -1.1629
 4057SOL    HW212488   1.674   5.363   4.154 -0.8154 -1.5080 -0.5127
 4058SOL     OW12489   5.552   1.273   3.125 -0.0135  0.2056  0.7912
 4058SOL    HW112490   5.505   1.232   3.198 -1.3136  1.0908  0.4787
 4058SOL    HW212491   5.643   1.277   3.155 -0.2580 -0.8003  1.7461
 4059SOL     OW12492   4.359   2.918   5.449  0.6676  0.4629 -0.2106
 4059SOL    HW112493   4.398   2.832   5.460 -1.2766 -0.5264 -0.4929
 4059SOL    HW212494   4.391   2.948   5.364  2.0051  0.4120  0.2540
 4060SOL     OW12495   3.623   0.890   0.621  0.0322 -0.1715  0.5666
 4060SOL    HW112496   3.611   0.862   0.712 -3.1491  0.6361  0.4987
 4060SOL    HW212497   3.712   0.925   0.619  0.5535 -1.0728  3.0946
 4061SOL     OW12498   1.818   5.561   0.867  0.0897 -0.0786  0.2267
 4061SOL    HW112499   1.818   5.647   0.825  1.1480  1.1663  2.5739
 4061SOL    HW212500   1.725   5.542   0.882 -0.1225  1.1152  0.5315
 4062SOL     OW12501   4.808   2.019   1.523  0.2468  0.8046 -0.1831
 4062SOL    HW112502   4.749   1.951   1.492  1.0395  0.6851 -1.4782
 4062SOL    HW212503   4.756   2.068   1.587 -0.5358 -0.6174  0.3229
 4063SOL     OW12504   0.201   3.512   4.003  0.1079  0.9341 -0.4215
 4063SOL    HW112505   0.232   3.500   3.913 -0.0350 -0.7388 -0.2730
 4063SOL    HW212506   0.159   3.429   4.025  0.6485  1.1084  1.3953
 4064SOL     OW12507   3.885   2.713   4.626 -0.1408 -0.2151  0.0363
 4064SOL    HW112508   3.872   2.712   4.721 -0.4076 -1.0015 -0.0017
 4064SOL    HW212509   3.971   2.752   4.613  0.7774 -1.9084  0.7212
 4065SOL     OW12510   5.024   4.263   2.426  0.6213  0.8304 -0.3064
 4065SOL    HW112511   4.943   4.252   2.375  0.8800  0.7529 -0.7095
 4065SOL    HW212512   5.014   4.349   2.467 -0.2544  0.2517  0.7422
 4066SOL     OW12513   2.887   3.754   2.629 -0.4329 -0.4828 -0.6439
 4066SOL    HW112514   2.806   3.784   2.671 -1.3307 -1.5735 -1.5289
 4066SOL    HW212515   2.956   3.804   2.672 -1.6839  1.5086 -0.8132
 4067SOL     OW12516   3.256   2.071   3.652  0.1778 -0.1091  0.6348
 4067SOL    HW112517   3.292   2.048   3.738  1.4252 -3.0112 -0.5245
 4067SOL    HW212518   3.333   2.086   3.597 -0.5966  0.9561 -0.1968
 4068SOL     OW12519   5.315   1.144   1.317 -0.7147 -0.4393  0.0131
 4068SOL    HW112520   5.296   1.050   1.314 -0.3206 -0.5108 -0.2859
 4068SOL    HW212521   5.385   1.157   1.253  0.5532 -0.2574  1.3807
 4069SOL     OW12522   4.805   2.049   2.844  0.3754 -0.3272  0.6013
 4069SOL    HW112523   4.786   2.137   2.811 -0.3965 -0.2096  1.3058
 4069SOL    HW212524   4.849   2.004   2.772  0.0975  0.3944 -0.0261
 4070SOL     OW12525   0.362   1.465   5.360  0.4623  0.2459 -0.4814
 4070SOL    HW112526   0.381   1.392   5.302 -0.5155  1.7237 -2.8351
 4070SOL    HW212527   0.314   1.426   5.433 -0.0598 -1.4557 -1.6693
 4071SOL     OW12528   1.449   4.497   5.293 -0.3562  0.2289 -0.0570
 4071SOL    HW112529   1.451   4.408   5.258  0.0081 -0.1441  0.8881
 4071SOL    HW212530   1.535   4.533   5.273  0.2762 -0.3822  1.4126
 4072SOL     OW12531   1.821   0.216   2.566 -0.2187 -0.1090 -0.4571
 4072SOL    HW112532   1.906   0.231   2.608  0.2054 -0.4788 -1.1566
 4072SOL    HW212533   1.820   0.276   2.492 -1.9407  2.2318  1.3262
 4073SOL     OW12534   3.528   0.061   5.482 -0.5310 -0.1250  0.0364
 4073SOL    HW112535   3.517   0.131   5.418 -0.0263 -0.7066 -0.6904
 4073SOL    HW212536   3.554   0.106   5.562 -1.0084  0.5881 -0.1977
 4074SOL     OW12537   4.945   0.951   3.176 -0.4449  0.0075 -0.2137
 4074SOL    HW112538   4.863   0.996   3.154  0.0348  0.6866 -0.6515
 4074SOL    HW212539   4.939   0.867   3.130 -1.0897 -0.1386  0.1236
 4075SOL     OW12540   3.688   0.779   1.488 -0.3620  0.2167  0.1283
 4075SOL    HW112541   3.714   0.800   1.578  1.3603  2.2395 -0.7628
 4075SOL    HW212542   3.637   0.854   1.460  0.3300  0.2679 -1.0402
 4076SOL     OW12543   5.196   3.314   1.738  0.1668  0.1922 -0.1572
 4076SOL    HW112544   5.110   3.354   1.730 -0.8538 -1.1326  2.6950
 4076SOL    HW212545   5.188   3.230   1.692 -0.2121 -0.0787  0.3887
 4077SOL     OW12546   3.192   0.657   4.559 -0.2576  0.0372 -0.4059
 4077SOL    HW112547   3.271   0.606   4.575  0.3585  0.6900 -1.2449
 4077SOL    HW212548   3.206   0.738   4.608  0.3558  0.8349 -1.8089
 4078SOL     OW12549   2.730   3.494   0.080 -0.3305 -0.3745  0.7043
 4078SOL    HW112550   2.780   3.492   0.162  0.9976 -2.8454 -0.0477
 4078SOL    HW212551   2.797   3.493   0.011 -1.4271  0.8063 -0.4209
 4079SOL     OW12552   4.833   3.384   0.300  0.1658 -0.0701  0.1817
 4079SOL    HW112553   4.759   3.437   0.330  1.2762  1.5172  0.2212
 4079SOL    HW212554   4.799   3.294   0.300 -1.9898  0.6725 -0.5122
 4080SOL     OW12555   4.442   5.072   3.173  0.8965  0.2079 -0.4418
 4080SOL    HW112556   4.458   5.166   3.178 -3.5056  1.0823  2.0399
 4080SOL    HW212557   4.468   5.038   3.258  0.4883 -0.4189 -0.5602
 4081SOL     OW12558   2.328   3.826   1.155 -0.4239 -0.2997  0.7455
 4081SOL    HW112559   2.409   3.775   1.157 -0.6447 -0.6667  0.3387
 4081SOL    HW212560   2.290   3.808   1.069 -0.2549  0.9275  0.3813
 4082SOL     OW12561   0.056   2.581   3.630 -0.2593  0.2137 -0.2663
 4082SOL    HW112562  -0.004   2.508   3.610 -0.0197  0.0298 -0.3211
 4082SOL    HW212563   0.132   2.565   3.574 -0.5336  0.9410 -0.8657
 4083SOL     OW12564   2.265   1.998   3.021 -0.4382 -0.1892 -0.5936
 4083SOL    HW112565   2.312   2.034   3.097  2.0519 -2.4041 -0.9053
 4083SOL    HW212566   2.210   1.929   3.058  0.2870 -0.8339 -0.6823
 4084SOL     OW12567   3.278   5.456   1.412 -0.4184 -0.1889  0.5590
 4084SOL    HW112568   3.235   5.466   1.497 -0.8429  0.5436  0.2651
 4084SOL    HW212569   3.348   5.520   1.412 -1.2237  0.7261 -0.1325
 4085SOL     OW12570   5.354   1.816   1.166  0.4032 -0.0454  0.0753
 4085SOL    HW112571   5.284   1.751   1.160  1.1183 -0.7338 -1.3176
 4085SOL    HW212572   5.368   1.844   1.075  0.4450  1.7045  0.5878
 4086SOL     OW12573   5.135   5.303   0.441 -0.5079  0.2664 -0.0211
 4086SOL    HW112574   5.159   5.320   0.532 -2.1259 -0.3935  0.5658
 4086SOL    HW212575   5.143   5.209   0.432 -3.3414 -0.0977  0.4177
 4087SOL     OW12576   3.877   4.881   0.816  0.3932  0.3111  0.8396
 4087SOL    HW112577   3.784   4.883   0.838  0.3209 -0.7575  0.6583
 4087SOL    HW212578   3.921   4.903   0.898 -0.0047  0.6034  0.9817
 4088SOL     OW12579   0.084   1.799   1.865 -0.0409  0.1392  0.2911
 4088SOL    HW112580   0.056   1.887   1.840  0.3563  0.7841  1.9665
 4088SOL    HW212581   0.058   1.744   1.792 -2.1858  1.3101  0.0861
 4089SOL     OW12582   4.932   1.633   3.566 -0.6200 -0.4889 -0.0914
 4089SOL    HW112583   4.912   1.544   3.594  0.3815 -0.6516  0.1713
 4089SOL    HW212584   4.958   1.678   3.647  1.5578 -0.7441 -0.5921
 4090SOL     OW12585   3.692   1.059   3.021 -0.4708 -0.0732  0.2694
 4090SOL    HW112586   3.680   1.022   3.108  0.1654 -0.1796  0.3196
 4090SOL    HW212587   3.622   1.021   2.969 -1.9545  1.3629  1.1460
 4091SOL     OW12588   3.669   4.155   0.618 -0.6856 -0.2869 -0.0441
 4091SOL    HW112589   3.758   4.160   0.653 -1.3940  2.0810  1.7266
 4091SOL    HW212590   3.679   4.178   0.526  0.4404  1.8556  0.5152
 4092SOL     OW12591   2.196   3.914   5.479  0.1524 -0.2940  0.3214
 4092SOL    HW112592   2.140   3.926   5.555  1.9980  1.2023  1.5386
 4092SOL    HW212593   2.208   4.002   5.444  0.7724 -0.7367 -0.6225
 4093SOL     OW12594   1.428   0.893   5.435  0.0949 -0.2238  0.0561
 4093SOL    HW112595   1.443   0.799   5.422 -1.0585 -0.4847  0.5286
 4093SOL    HW212596   1.335   0.906   5.418  0.1226  0.7379  0.5594
 4094SOL     OW12597   2.002   3.346   3.980  0.8447 -0.4496  0.3057
 4094SOL    HW112598   2.064   3.281   4.013 -0.2948 -1.3498  0.7526
 4094SOL    HW212599   2.001   3.414   4.047  0.7621 -0.8191  0.6823
 4095SOL     OW12600   4.087   1.826   0.531  0.3018 -0.0387  0.4635
 4095SOL    HW112601   4.035   1.771   0.473  0.4123  0.7166 -0.3779
 4095SOL    HW212602   4.059   1.916   0.511  1.0710  0.2976  0.8464
 4096SOL     OW12603   1.142   5.135   3.644 -0.5975 -0.0217 -0.1345
 4096SOL    HW112604   1.142   5.166   3.734 -0.8422  1.4877 -0.6178
 4096SOL    HW212605   1.178   5.209   3.594 -0.8180 -0.6870 -1.3109
 4097SOL     OW12606   2.471   3.417   0.050  0.1054 -0.7848  0.3342
 4097SOL    HW112607   2.561   3.451   0.050 -0.1707 -0.0185  0.2305
 4097SOL    HW212608   2.424   3.476  -0.009 -1.0579  0.5101  2.4130
 4098SOL     OW12609   3.258   5.105   0.728  0.1035 -0.6378 -0.0345
 4098SOL    HW112610   3.174   5.150   0.741  1.0184  0.6467  2.0624
 4098SOL    HW212611   3.307   5.163   0.671  0.3251 -0.2796  0.5104
 4099SOL     OW12612   4.888   4.090   1.025  0.3993 -0.0397 -0.5368
 4099SOL    HW112613   4.957   4.067   0.963  0.8783  1.3756 -0.5406
 4099SOL    HW212614   4.928   4.080   1.111 -0.5163 -2.8635 -0.3354
 4100SOL     OW12615   3.548   5.237   0.501  0.1816  0.6253  0.4388
 4100SOL    HW112616   3.620   5.215   0.560  0.6559  1.1268  0.0652
 4100SOL    HW212617   3.536   5.158   0.448  1.5323  1.0379 -0.5585
 4101SOL     OW12618   2.471   4.527   1.155 -0.5983 -0.1549 -0.5727
 4101SOL    HW112619   2.496   4.510   1.065  2.7997 -1.6630  0.4767
 4101SOL    HW212620   2.410   4.456   1.177 -0.5949 -0.4120 -1.3815
 4102SOL     OW12621   3.496   0.280   4.296 -0.5823  0.4992 -0.8948
 4102SOL    HW112622   3.523   0.282   4.204 -0.3684  0.9608 -0.8249
 4102SOL    HW212623   3.480   0.187   4.314  1.3214  0.1547 -0.8262
 4103SOL     OW12624   4.530   2.095   2.322  1.0368  0.1417 -0.5140
 4103SOL    HW112625   4.557   2.019   2.272  0.2162  0.2911 -1.2114
 4103SOL    HW212626   4.572   2.169   2.278  0.7108  0.2232 -0.6946
 4104SOL     OW12627   0.479   4.360   2.382 -0.0440 -0.1366  0.9983
 4104SOL    HW112628   0.495   4.441   2.334 -0.0064 -0.0198  1.2044
 4104SOL    HW212629   0.566   4.327   2.405 -0.0743  0.4859  2.0979
 4105SOL     OW12630   2.339   1.806   2.565 -0.2928  0.4208  0.3570
 4105SOL    HW112631   2.289   1.735   2.525 -0.6950  0.4550  0.7904
 4105SOL    HW212632   2.277   1.879   2.569 -0.0023  0.6733  0.2833
 4106SOL     OW12633   2.698   4.483   3.691 -0.0404 -0.8583  0.1432
 4106SOL    HW112634   2.657   4.569   3.684 -0.6391 -1.0586  1.0645
 4106SOL    HW212635   2.752   4.476   3.612 -0.1359  0.2742 -0.0393
 4107SOL     OW12636   4.081   2.433   1.720  0.3166  0.7210 -0.3793
 4107SOL    HW112637   4.147   2.448   1.788  0.1159  2.0706 -0.4543
 4107SOL    HW212638   4.131   2.402   1.645  0.5581 -0.6708  0.3139
 4108SOL     OW12639   5.248   3.894   0.325  0.1606  0.1634 -0.6256
 4108SOL    HW112640   5.254   3.976   0.375 -2.6007  0.6618 -0.9624
 4108SOL    HW212641   5.183   3.842   0.372  0.2920 -0.9474 -1.6318
 4109SOL     OW12642   2.128   5.246   2.364  0.2603  0.5331 -0.3360
 4109SOL    HW112643   2.139   5.325   2.416  0.1521 -0.1489  0.7390
 4109SOL    HW212644   2.167   5.176   2.417 -1.1583 -0.4203 -0.5113
 4110SOL     OW12645   0.248   2.896   0.662  0.5773  0.0792 -0.9367
 4110SOL    HW112646   0.182   2.858   0.603 -0.9687  1.9735 -0.5097
 4110SOL    HW212647   0.228   2.989   0.663 -0.0790  0.0639  3.3108
 4111SOL     OW12648   0.463   1.686   1.498 -0.1839 -0.2179  0.1764
 4111SOL    HW112649   0.467   1.591   1.509  2.2708 -0.3048 -0.6942
 4111SOL    HW212650   0.529   1.705   1.431  0.1721  2.1931  1.1036
 4112SOL     OW12651   4.011   1.512   0.785 -0.4101 -0.1793 -0.6097
 4112SOL    HW112652   4.020   1.603   0.813 -0.6313  0.1741 -1.6473
 4112SOL    HW212653   3.925   1.508   0.743  0.1586 -0.5241 -1.7940
 4113SOL     OW12654   2.572   0.957   1.796  0.2821  0.2111 -0.6702
 4113SOL    HW112655   2.640   1.022   1.815  1.1607 -0.7077 -0.5676
 4113SOL    HW212656   2.511   1.003   1.738  2.3513  0.3191 -2.9006
 4114SOL     OW12657   0.437   4.667   2.655 -0.3069 -0.0432  0.1748
 4114SOL    HW112658   0.448   4.578   2.688 -2.6410  0.2877  2.0328
 4114SOL    HW212659   0.350   4.667   2.614 -0.0530  1.2232 -0.4127
 4115SOL     OW12660   4.459   5.552   3.646 -0.0649  0.2536  0.0919
 4115SOL    HW112661   4.394   5.583   3.709  0.6947 -0.9350  1.5531
 4115SOL    HW212662   4.542   5.560   3.692  0.2638 -3.1454  0.3845
 4116SOL     OW12663   0.712   1.891   5.540  0.4910 -0.0354  0.0178
 4116SOL    HW112664   0.677   1.803   5.524  0.4755 -0.1194  0.4869
 4116SOL    HW212665   0.687   1.941   5.463  0.7151 -0.5079 -0.3665
 4117SOL     OW12666   1.876   2.397   3.822  0.2720  0.1467  0.2841
 4117SOL    HW112667   1.888   2.364   3.733 -2.8152 -1.1212  0.2165
 4117SOL    HW212668   1.936   2.345   3.875  1.9379  0.7133 -0.9752
 4118SOL     OW12669   2.768   4.444   4.881 -0.6210 -0.6295  0.4033
 4118SOL    HW112670   2.837   4.455   4.815 -0.1094  0.7721  1.1220
 4118SOL    HW212671   2.801   4.378   4.941 -0.1396 -0.3596  0.4375
 4119SOL     OW12672   3.802   2.874   2.447 -0.3085 -0.6588 -0.2285
 4119SOL    HW112673   3.867   2.890   2.378  0.1550  1.3708  0.6260
 4119SOL    HW212674   3.808   2.780   2.464  2.6178 -0.4944  0.0216
 4120SOL     OW12675   4.750   4.728   1.986  0.0501 -0.5199  0.1165
 4120SOL    HW112676   4.769   4.643   2.024  1.5436  0.2169  1.1169
 4120SOL    HW212677   4.751   4.788   2.061 -0.9090  0.3938 -0.5741
 4121SOL     OW12678   2.511   3.193   4.950 -0.2720 -0.4058  0.0292
 4121SOL    HW112679   2.433   3.155   4.910 -0.5636  0.0011  0.2032
 4121SOL    HW212680   2.548   3.121   5.002  1.5334 -1.7449 -2.8662
 4122SOL     OW12681   4.451   0.668   3.504  0.0489  0.2597 -0.2162
 4122SOL    HW112682   4.380   0.731   3.509  1.2312  1.6560 -0.3806
 4122SOL    HW212683   4.514   0.697   3.569 -0.0487 -1.6915  0.8306
 4123SOL     OW12684   4.664   1.180   3.512 -0.3468  1.3009  0.4403
 4123SOL    HW112685   4.651   1.106   3.453  0.4426  0.1496  1.6510
 4123SOL    HW212686   4.619   1.155   3.592 -0.4086  2.3177  0.7392
 4124SOL     OW12687   0.968   1.571   1.840 -0.2842 -0.4160  0.2352
 4124SOL    HW112688   1.022   1.622   1.901  0.0513  1.8736 -1.8349
 4124SOL    HW212689   1.027   1.506   1.803  0.2572  0.0626  0.2458
 4125SOL     OW12690   4.783   0.293   2.555  0.3278 -0.0448  0.5814
 4125SOL    HW112691   4.853   0.281   2.491  0.2329 -1.0296  0.6413
 4125SOL    HW212692   4.754   0.383   2.544  0.7833 -0.0033 -0.2839
 4126SOL     OW12693   0.057   3.148   1.196  0.1830 -0.2213 -0.1383
 4126SOL    HW112694   0.003   3.172   1.271 -1.2391  1.4810 -1.6034
 4126SOL    HW212695   0.147   3.145   1.230 -0.4083  0.6325  1.5735
 4127SOL     OW12696   1.705   1.038   0.275  0.5106  0.0348 -0.5143
 4127SOL    HW112697   1.680   1.111   0.332 -0.3394 -1.3462  0.9682
 4127SOL    HW212698   1.664   1.057   0.191 -1.5479  0.2228  0.4726
 4128SOL     OW12699   3.009   2.462   1.377  0.1595  0.1937  0.2445
 4128SOL    HW112700   3.027   2.370   1.394 -1.0832 -0.0952  0.0487
 4128SOL    HW212701   3.013   2.504   1.463 -1.8262 -0.5099  0.7212
 4129SOL     OW12702   2.202   2.505   0.439 -0.3208 -0.0969 -0.8058
 4129SOL    HW112703   2.275   2.511   0.500  1.4126  0.1228 -2.7810
 4129SOL    HW212704   2.231   2.554   0.362 -2.6200  0.1065 -1.6300
 4130SOL     OW12705   5.449   2.359   4.843  0.3191  0.3084  0.0223
 4130SOL    HW112706   5.415   2.448   4.836 -0.9793  0.0694  2.2685
 4130SOL    HW212707   5.545   2.370   4.846  0.1776  1.6315  0.2527
 4131SOL     OW12708   1.408   5.168   3.895 -0.0317 -0.4012 -0.4228
 4131SOL    HW112709   1.407   5.208   3.809 -3.5025 -1.2507 -0.9315
 4131SOL    HW212710   1.402   5.241   3.956  0.1214  0.1105 -1.0175
 4132SOL     OW12711   2.954   1.212   3.445  0.9314 -0.1873 -0.0708
 4132SOL    HW112712   3.022   1.149   3.469  0.7649 -0.5521 -0.5416
 4132SOL    HW212713   2.997   1.271   3.383  1.2361  0.4923  0.7548
 4133SOL     OW12714   5.407   4.850   3.822  0.6548  0.4254  0.2748
 4133SOL    HW112715   5.419   4.942   3.799 -1.7232  0.8340  0.3736
 4133SOL    HW212716   5.313   4.835   3.812  1.1418 -2.3887 -1.0896
 4134SOL     OW12717   2.900   3.117   3.325  0.1584 -0.1354 -0.0624
 4134SOL    HW112718   2.939   3.104   3.239  0.0230 -1.3057  0.0395
 4134SOL    HW212719   2.965   3.169   3.373  1.5231 -1.8144  0.0237
 4135SOL     OW12720   0.842   3.490   1.335 -0.0575  0.4398 -0.3333
 4135SOL    HW112721   0.899   3.553   1.378 -1.5219  1.1131  0.6846
 4135SOL    HW212722   0.822   3.425   1.403 -2.5365  1.6108  0.1503
 4136SOL     OW12723   1.747   0.391   1.574 -0.2044  0.2692 -0.2121
 4136SOL    HW112724   1.731   0.485   1.579 -0.4614  0.1731  1.5843
 4136SOL    HW212725   1.776   0.376   1.484 -0.9447  1.9273 -0.7653
 4137SOL     OW12726   1.036   2.484   0.940 -0.5013  0.0744 -0.0106
 4137SOL    HW112727   0.949   2.501   0.904 -1.2707  0.9768  2.1123
 4137SOL    HW212728   1.021   2.427   1.016  1.1453 -2.5583 -1.4673
 4138SOL     OW12729   0.428   0.749   3.384 -0.3041 -0.1152 -0.2526
 4138SOL    HW112730   0.391   0.726   3.299 -0.9991  0.3287 -0.0770
 4138SOL    HW212731   0.516   0.712   3.383 -0.0100  0.5980 -1.4808
 4139SOL     OW12732   1.972   2.561   2.404 -0.2844 -0.1236 -0.3513
 4139SOL    HW112733   2.000   2.475   2.436  2.1157  1.2773  1.7282
 4139SOL    HW212734   2.004   2.564   2.313 -1.0923 -1.6582 -0.7226
 4140SOL     OW12735   1.544   4.289   1.093 -0.2138  0.2713  0.3688
 4140SOL    HW112736   1.619   4.346   1.076 -0.8238  1.3190  1.1118
 4140SOL    HW212737   1.576   4.228   1.160  0.4717 -0.3560 -0.5037
 4141SOL     OW12738   2.171   1.008   2.401 -1.0183 -0.6766  0.5872
 4141SOL    HW112739   2.195   1.094   2.435 -0.6523 -0.5617  0.0410
 4141SOL    HW212740   2.198   0.947   2.470  2.4891 -0.7289 -0.6459
 4142SOL     OW12741   0.477   3.509   0.677 -0.5907  0.5819 -0.0823
 4142SOL    HW112742   0.512   3.420   0.668  0.1159  0.8658 -0.2532
 4142SOL    HW212743   0.424   3.522   0.599  0.0747  0.6433 -0.5308
 4143SOL     OW12744   2.977   3.953   2.336 -0.4909 -0.8267 -0.4215
 4143SOL    HW112745   3.033   3.927   2.262 -0.0753 -2.9549  0.5736
 4143SOL    HW212746   3.031   4.014   2.386 -0.5778  0.2203 -1.5653
 4144SOL     OW12747   1.491   3.425   3.540 -0.0652 -0.2305 -0.0443
 4144SOL    HW112748   1.408   3.472   3.531 -0.0537 -0.5926 -2.9892
 4144SOL    HW212749   1.523   3.414   3.450  1.9484 -2.2719  0.8057
 4145SOL     OW12750   5.390   1.777   3.181  0.4557 -0.6638 -0.2026
 4145SOL    HW112751   5.332   1.846   3.212 -0.2287 -0.7674 -1.2381
 4145SOL    HW212752   5.471   1.822   3.157  0.6495 -0.4613  0.7860
 4146SOL     OW12753   3.076   4.388   2.294  0.3195  0.1919  0.3382
 4146SOL    HW112754   3.043   4.343   2.372  1.0620 -2.4556 -0.7504
 4146SOL    HW212755   2.998   4.420   2.250 -0.4668 -1.5864  0.3264
 4147SOL     OW12756   4.543   4.496   2.679  0.0042 -0.2431 -0.1157
 4147SOL    HW112757   4.494   4.578   2.685 -0.2687 -0.4538  0.6374
 4147SOL    HW212758   4.479   4.429   2.702 -0.3362 -0.8830 -2.6301
 4148SOL     OW12759   2.493   0.290   0.691 -0.5997 -0.1282  0.1463
 4148SOL    HW112760   2.555   0.268   0.761 -0.1928  2.6787  0.7642
 4148SOL    HW212761   2.533   0.363   0.645 -2.3957  0.2278 -0.9494
 4149SOL     OW12762   5.177   5.097   5.156  0.5010  0.3767 -0.0437
 4149SOL    HW112763   5.176   5.143   5.240  0.3214  0.2193  0.0405
 4149SOL    HW212764   5.097   5.046   5.156  1.5013 -1.2850  0.6084
 4150SOL     OW12765   0.166   1.172   3.773  0.6416  0.0325  0.3363
 4150SOL    HW112766   0.124   1.095   3.812 -0.2818  1.1880  1.7130
 4150SOL    HW212767   0.228   1.136   3.710  0.1419 -1.8306  0.8516
 4151SOL     OW12768   1.768   1.570   2.993 -0.0455  0.6294  0.1277
 4151SOL    HW112769   1.861   1.589   3.004 -0.3795  3.0664 -0.6671
 4151SOL    HW212770   1.727   1.606   3.071 -0.3294 -0.8850  0.7214
 4152SOL     OW12771   5.053   4.599   1.720 -0.3493  0.2324 -0.2600
 4152SOL    HW112772   5.128   4.657   1.723  0.7119 -1.1076 -0.2184
 4152SOL    HW212773   5.009   4.622   1.638 -1.7737  3.1994  1.1671
 4153SOL     OW12774   3.482   1.334   0.712 -0.5119  0.1158  0.2521
 4153SOL    HW112775   3.397   1.291   0.711  0.2391 -1.4545 -1.9665
 4153SOL    HW212776   3.510   1.336   0.621  2.1103  0.0132  0.9713
 4154SOL     OW12777   4.741   4.553   4.297 -0.0310  0.3251 -0.2083
 4154SOL    HW112778   4.653   4.515   4.294  0.3264 -0.4467 -1.1018
 4154SOL    HW212779   4.726   4.645   4.318 -1.1460  0.4442 -1.4033
 4155SOL     OW12780   1.235   0.708   3.723  0.1804  0.0897  0.0648
 4155SOL    HW112781   1.240   0.684   3.815 -0.8127 -0.0250  0.1015
 4155SOL    HW212782   1.260   0.801   3.721  1.1024 -0.1448  0.3147
 4156SOL     OW12783   2.070   3.228   3.705  0.3321  0.0812 -0.1912
 4156SOL    HW112784   2.164   3.212   3.703  0.7275  2.1016 -0.0085
 4156SOL    HW212785   2.052   3.257   3.794 -0.4697 -0.2709 -0.2268
 4157SOL     OW12786   4.864   1.365   3.578 -0.4545  0.1389 -0.2809
 4157SOL    HW112787   4.782   1.318   3.564 -0.6555  0.3227  0.2398
 4157SOL    HW212788   4.904   1.370   3.492 -0.3842 -1.0597 -0.3434
 4158SOL     OW12789   4.860   2.741   2.980  0.1644 -0.3311 -0.0181
 4158SOL    HW112790   4.823   2.716   3.065 -2.6462  1.3574 -0.6265
 4158SOL    HW212791   4.825   2.676   2.919 -0.5570  0.3882 -0.3746
 4159SOL     OW12792   3.628   3.741   1.163 -0.1918  0.8779 -0.4749
 4159SOL    HW112793   3.631   3.824   1.115  0.3996  2.0980  1.5551
 4159SOL    HW212794   3.535   3.720   1.169 -0.2816  0.3997 -2.5020
 4160SOL     OW12795   3.542   0.275   2.368  0.0807 -0.2023  0.5062
 4160SOL    HW112796   3.602   0.325   2.423  1.4604 -2.2983  1.0212
 4160SOL    HW212797   3.595   0.247   2.293 -0.9635  0.0488 -0.3545
 4161SOL     OW12798   3.765   4.029   4.478  0.3896  0.3524  0.4739
 4161SOL    HW112799   3.726   4.034   4.391 -1.9204 -0.5469  1.3844
 4161SOL    HW212800   3.858   4.013   4.461  0.6128  3.2168 -1.8070
 4162SOL     OW12801   2.429   1.114   1.593  0.3401 -0.3423  0.1842
 4162SOL    HW112802   2.396   1.090   1.506 -0.8834  1.4162  0.1118
 4162SOL    HW212803   2.491   1.185   1.576  2.1971 -1.8069  0.5610
 4163SOL     OW12804   2.936   1.509   4.641 -0.0038  0.3323  0.1474
 4163SOL    HW112805   2.973   1.442   4.699 -0.7169 -0.4862 -0.3094
 4163SOL    HW212806   2.982   1.498   4.558 -0.3415  0.1827 -0.0245
 4164SOL     OW12807   0.603   2.451   3.115 -0.5242  0.2102 -0.0218
 4164SOL    HW112808   0.688   2.466   3.074 -1.5834 -0.7799 -2.8764
 4164SOL    HW212809   0.566   2.539   3.125  1.4549  0.8411  3.0622
 4165SOL     OW12810   0.994   1.554   3.239  0.2115  0.1141 -0.0449
 4165SOL    HW112811   0.925   1.602   3.193 -2.5280 -1.3960  2.1725
 4165SOL    HW212812   1.035   1.619   3.296 -0.2694  0.7603 -0.4242
 4166SOL     OW12813   5.515   2.585   2.100 -0.1523 -0.5085  0.0521
 4166SOL    HW112814   5.422   2.596   2.082 -0.1514  0.4590  0.5933
 4166SOL    HW212815   5.521   2.584   2.196  0.4602  0.0971  0.0270
 4167SOL     OW12816   2.489   0.743   3.414 -0.7896 -0.4563  0.4821
 4167SOL    HW112817   2.410   0.753   3.362 -1.0181  0.3736  0.9643
 4167SOL    HW212818   2.507   0.649   3.413  0.0449 -0.3423 -2.2605
 4168SOL     OW12819   1.120   4.619   1.283 -0.1116 -0.4486  0.2404
 4168SOL    HW112820   1.211   4.626   1.253  0.0621 -1.2721  0.5250
 4168SOL    HW212821   1.121   4.654   1.372 -0.1643 -0.0688  0.0936
 4169SOL     OW12822   4.249   0.483   1.597  0.2434 -0.2794  0.2358
 4169SOL    HW112823   4.287   0.547   1.537 -0.3318  1.2981  1.4829
 4169SOL    HW212824   4.322   0.454   1.651  0.3415 -0.0093  0.2477
 4170SOL     OW12825   1.224   2.487   1.605 -0.7045 -0.2512  0.5693
 4170SOL    HW112826   1.152   2.462   1.664  0.1703  0.5824  2.0537
 4170SOL    HW212827   1.189   2.561   1.556 -1.4067 -0.8765  0.0968
 4171SOL     OW12828   1.162   5.053   1.270  0.8374  0.2893  0.1156
 4171SOL    HW112829   1.230   5.119   1.253  0.2545  1.2624  1.3791
 4171SOL    HW212830   1.121   5.038   1.185  1.9265  0.4605 -0.4658
 4172SOL     OW12831   2.812   0.981   1.540 -0.1953 -0.1270  0.1777
 4172SOL    HW112832   2.891   1.017   1.499  1.8770 -0.3116  3.5831
 4172SOL    HW212833   2.793   1.042   1.611 -2.1131 -1.0338  0.4869
 4173SOL     OW12834   4.349   2.270   5.340  0.4918  0.3671 -0.6445
 4173SOL    HW112835   4.433   2.229   5.358 -0.7013 -1.5794  1.0023
 4173SOL    HW212836   4.338   2.263   5.245  1.4992 -0.7748 -0.6925
 4174SOL     OW12837   4.192   5.199   5.123 -0.0857  0.2975 -0.0688
 4174SOL    HW112838   4.207   5.126   5.062  2.1818  2.5639 -2.5207
 4174SOL    HW212839   4.201   5.160   5.210  2.3487 -2.1808 -1.2651
 4175SOL     OW12840   0.205   0.209   1.938  0.2393  0.2354  0.7026
 4175SOL    HW112841   0.221   0.148   2.011  0.3682 -0.1991  0.3186
 4175SOL    HW212842   0.251   0.170   1.864 -0.4535  0.3130  0.2188
 4176SOL     OW12843   2.210   2.923   0.027 -0.1842 -0.3415 -0.1187
 4176SOL    HW112844   2.127   2.964   0.052 -0.2586  0.4355 -1.5372
 4176SOL    HW212845   2.275   2.992   0.037 -0.0568 -0.3178 -0.9801
 4177SOL     OW12846   5.451   0.731   2.384  0.2206 -0.0844  0.0338
 4177SOL    HW112847   5.433   0.817   2.422 -1.3948 -0.5027  0.2881
 4177SOL    HW212848   5.439   0.670   2.456 -0.0515 -0.6416 -0.4753
 4178SOL     OW12849   4.848   1.961   2.352  0.6421  0.3274  0.2811
 4178SOL    HW112850   4.819   1.877   2.388  2.8638 -0.4387  0.4644
 4178SOL    HW212851   4.791   1.976   2.276  1.4270 -2.3550 -0.9570
 4179SOL     OW12852   5.377   1.515   5.129  0.2029  0.0834 -0.0431
 4179SOL    HW112853   5.367   1.498   5.036 -1.0204 -0.0801  0.1062
 4179SOL    HW212854   5.369   1.428   5.170 -0.9670  0.3526  0.3321
 4180SOL     OW12855   0.448   2.791   4.463  0.4829  0.2656  0.5794
 4180SOL    HW112856   0.501   2.777   4.541  1.8888  0.1556 -0.3643
 4180SOL    HW212857   0.466   2.715   4.408 -1.5075 -0.3286  0.6498
 4181SOL     OW12858   5.490   3.941   2.490  0.0010 -0.7348  0.2063
 4181SOL    HW112859   5.461   3.985   2.410  1.1755 -2.1530 -1.0637
 4181SOL    HW212860   5.410   3.901   2.526 -0.6582  0.4924  0.1432
 4182SOL     OW12861   0.175   2.332   3.213 -0.5062  0.2637  0.1087
 4182SOL    HW112862   0.257   2.282   3.218 -0.5378  0.2094  0.0944
 4182SOL    HW212863   0.107   2.268   3.233 -0.4999  0.4537  0.7316
 4183SOL     OW12864   1.371   3.304   2.203 -0.4386  0.7859  0.3924
 4183SOL    HW112865   1.331   3.315   2.117 -0.1455  0.1827  0.1734
 4183SOL    HW212866   1.425   3.382   2.214  2.4346 -0.7061 -1.5859
 4184SOL     OW12867   3.861   3.011   3.574  0.4026 -0.1600  0.1544
 4184SOL    HW112868   3.934   3.005   3.513  0.5510 -0.2182  0.3359
 4184SOL    HW212869   3.850   2.922   3.608  2.2694  0.3804  2.4521
 4185SOL     OW12870   2.233   0.511   0.402  0.0814  0.1237  0.3779
 4185SOL    HW112871   2.189   0.477   0.324 -0.0422 -0.1355  0.5624
 4185SOL    HW212872   2.166   0.564   0.445  0.2628  0.5814  0.1091
 4186SOL     OW12873   0.106   4.788   0.501 -0.9735 -0.0460  0.0370
 4186SOL    HW112874   0.151   4.855   0.448 -3.4778  0.9167 -1.0208
 4186SOL    HW212875   0.104   4.711   0.445 -0.7811 -0.0441  0.0273
 4187SOL     OW12876   4.139   2.758   4.015  0.3714 -0.5010  0.1891
 4187SOL    HW112877   4.157   2.665   4.000  1.0424 -0.2063 -0.9171
 4187SOL    HW212878   4.221   2.802   3.993  0.6084  0.2272  2.3324
 4188SOL     OW12879   4.553   4.987   2.168 -0.0735 -0.2310  0.1013
 4188SOL    HW112880   4.487   4.987   2.237  0.1705 -0.6157  0.3411
 4188SOL    HW212881   4.503   4.998   2.087 -0.5535 -1.6617  0.1783
 4189SOL     OW12882   0.435   1.708   5.035  0.1006 -0.3821 -0.2886
 4189SOL    HW112883   0.514   1.670   5.075  0.2351 -2.9678 -2.7475
 4189SOL    HW212884   0.464   1.738   4.949 -1.4773 -0.9325 -1.0362
 4190SOL     OW12885   0.239   3.225   3.576  0.5444 -0.1525 -0.6272
 4190SOL    HW112886   0.235   3.135   3.608 -3.0066  0.1194  0.0260
 4190SOL    HW212887   0.269   3.276   3.651 -1.0775 -0.3787  0.2110
 4191SOL     OW12888   1.814   4.408   2.086  0.2794 -0.2615 -0.4188
 4191SOL    HW112889   1.727   4.370   2.081  0.4554 -0.9973  1.3423
 4191SOL    HW212890   1.805   4.480   2.148  0.5371  0.9131 -1.6944
 4192SOL     OW12891   1.621   2.547   0.550 -0.0237 -0.2353  0.4423
 4192SOL    HW112892   1.603   2.630   0.594  0.4894  0.3085 -0.3438
 4192SOL    HW212893   1.540   2.497   0.559  0.0915 -0.1757  2.0407
 4193SOL     OW12894   5.168   0.526   4.881 -0.9722 -0.5103  0.2982
 4193SOL    HW112895   5.258   0.523   4.849 -1.1591  2.1326 -0.6754
 4193SOL    HW212896   5.169   0.472   4.960  1.3579 -0.8635  0.0879
 4194SOL     OW12897   4.217   0.525   3.027 -0.0609 -0.4746 -0.0823
 4194SOL    HW112898   4.186   0.568   3.106  1.2858  0.8846 -0.2396
 4194SOL    HW212899   4.227   0.596   2.963  0.3011 -1.3164 -0.9974
 4195SOL     OW12900   5.054   5.469   3.920  0.2263  0.6376 -0.8958
 4195SOL    HW112901   5.033   5.539   3.982 -0.3962 -1.3610  1.2722
 4195SOL    HW212902   4.969   5.435   3.892  0.4631 -1.1357  0.3818
 4196SOL     OW12903   4.391   1.309   3.814 -0.7734 -0.1679 -0.8063
 4196SOL    HW112904   4.315   1.331   3.761 -0.6658 -0.9288 -1.2815
 4196SOL    HW212905   4.441   1.247   3.761  0.8827  1.3168 -1.0677
 4197SOL     OW12906   3.869   1.608   2.199  0.0367 -0.0344 -0.2193
 4197SOL    HW112907   3.907   1.655   2.125  0.6009  1.3052  0.8837
 4197SOL    HW212908   3.941   1.557   2.235  0.4817  1.4453  1.0447
 4198SOL     OW12909   3.000   4.963   5.240 -1.0623  0.1742  0.1954
 4198SOL    HW112910   2.999   4.947   5.146 -1.1349 -3.3101  0.6691
 4198SOL    HW212911   2.910   4.947   5.268 -1.0522  1.2278  0.8767
 4199SOL     OW12912   5.337   4.296   5.359  0.1911  0.4541  0.3549
 4199SOL    HW112913   5.298   4.318   5.275  1.4241  2.4161  0.2109
 4199SOL    HW212914   5.272   4.324   5.424 -0.9303 -1.4201  0.1215
 4200SOL     OW12915   3.354   3.735   1.039  0.1035 -0.1546 -0.0375
 4200SOL    HW112916   3.287   3.775   0.984 -1.7959 -2.0975  0.7269
 4200SOL    HW212917   3.374   3.651   0.997  2.2211  0.4300 -0.3247
 4201SOL     OW12918   3.865   2.438   3.683 -0.0582  0.3164  0.4492
 4201SOL    HW112919   3.783   2.445   3.732  0.3770  2.5231  1.0011
 4201SOL    HW212920   3.852   2.363   3.625 -2.1896  0.1712  1.0108
 4202SOL     OW12921   0.155   4.723   4.752  0.0080  0.0796 -1.0938
 4202SOL    HW112922   0.096   4.789   4.790  1.2916  0.5272  0.2151
 4202SOL    HW212923   0.150   4.649   4.813 -0.2315 -0.4434 -1.7304
 4203SOL     OW12924   2.089   2.237   3.481 -0.6159 -0.0433  0.1098
 4203SOL    HW112925   2.138   2.168   3.526  0.0477  0.1874 -0.2562
 4203SOL    HW212926   2.124   2.238   3.392  1.2562  2.4921  0.7679
 4204SOL     OW12927   4.656   0.352   4.103  0.1905 -0.1308  0.1219
 4204SOL    HW112928   4.673   0.349   4.009 -0.0633 -0.5535  0.0854
 4204SOL    HW212929   4.734   0.315   4.143  1.6520  2.8431  0.2729
 4205SOL     OW12930   1.707   1.583   2.052 -0.1100 -0.4847 -0.6303
 4205SOL    HW112931   1.723   1.512   2.114  1.2351  0.3298  0.0021
 4205SOL    HW212932   1.678   1.539   1.972  1.2727 -1.7969 -0.4548
 4206SOL     OW12933   1.241   4.778   0.893  0.6245 -0.1151 -0.0408
 4206SOL    HW112934   1.161   4.808   0.936  0.4575  0.0563 -0.4632
 4206SOL    HW212935   1.262   4.848   0.831 -0.1156 -1.1207 -1.4820
 4207SOL     OW12936   5.364   3.878   4.648 -0.2338 -0.5537  0.2535
 4207SOL    HW112937   5.457   3.893   4.665 -0.4358  1.4450 -0.1020
 4207SOL    HW212938   5.353   3.783   4.654  1.7989 -0.8255  0.3951
 4208SOL     OW12939   3.084   5.403   3.004 -0.3037  0.6057  0.1073
 4208SOL    HW112940   3.056   5.312   3.001 -0.6157  0.5772  2.5627
 4208SOL    HW212941   3.006   5.453   2.981 -0.4002  0.3183 -0.2035
 4209SOL     OW12942   4.731   3.528   5.431  0.4690  0.0161 -0.1577
 4209SOL    HW112943   4.764   3.455   5.379 -1.8105 -1.5645  0.4789
 4209SOL    HW212944   4.708   3.595   5.367  1.6809 -0.1765 -0.8254
 4210SOL     OW12945   0.389   2.421   1.177 -0.5902 -0.4832 -0.5902
 4210SOL    HW112946   0.473   2.456   1.149  0.0822 -0.3789  1.3729
 4210SOL    HW212947   0.361   2.478   1.249 -0.4344 -2.6971  1.3437
 4211SOL     OW12948   4.032   0.227   2.150 -0.1736  0.4104  0.4816
 4211SOL    HW112949   3.941   0.216   2.178 -0.5302 -0.8237 -0.9931
 4211SOL    HW212950   4.037   0.179   2.067  1.8175  0.5160  0.4965
 4212SOL     OW12951   2.615   2.916   0.820 -0.0985  0.5403  0.0692
 4212SOL    HW112952   2.652   2.840   0.864 -0.0983  1.3684  1.5385
 4212SOL    HW212953   2.542   2.944   0.876 -1.2892  0.5456 -1.3914
 4213SOL     OW12954   4.719   1.811   4.148  0.2566  0.4237 -0.6405
 4213SOL    HW112955   4.801   1.775   4.114  0.2470 -0.1592 -0.0646
 4213SOL    HW212956   4.668   1.734   4.173 -1.2367  0.6806 -2.6553
 4214SOL     OW12957   0.707   2.299   5.546  0.2489  0.1110  0.5925
 4214SOL    HW112958   0.715   2.253   5.629 -0.2667  1.8524  1.6625
 4214SOL    HW212959   0.674   2.233   5.485  0.2198 -1.0980  1.8682
 4215SOL     OW12960   4.903   3.742   4.642  0.2243  0.0064  0.0064
 4215SOL    HW112961   4.938   3.670   4.695 -0.3674  0.6583  1.3302
 4215SOL    HW212962   4.837   3.701   4.586 -0.4351 -0.4148  1.0704
 4216SOL     OW12963   3.168   1.761   0.947  0.1215 -0.7180  0.0021
 4216SOL    HW112964   3.250   1.712   0.948 -0.8414 -2.4230  0.0167
 4216SOL    HW212965   3.152   1.781   0.855 -0.5244 -2.3952 -0.2979
 4217SOL     OW12966   4.819   5.540   5.176 -0.5961 -0.1759 -0.1589
 4217SOL    HW112967   4.825   5.447   5.152  0.3325 -0.3715  0.7373
 4217SOL    HW212968   4.739   5.547   5.227  0.3506 -0.9386  1.5182
 4218SOL     OW12969   1.220   3.478   4.579 -0.2948 -0.1216  0.4613
 4218SOL    HW112970   1.142   3.525   4.548 -0.5679  0.5982  2.1725
 4218SOL    HW212971   1.291   3.542   4.572  0.0859 -0.6428 -0.6848
 4219SOL     OW12972   0.801   5.546   0.212 -0.3986 -0.4836  0.1656
 4219SOL    HW112973   0.759   5.513   0.292  0.4094  3.3421  2.4756
 4219SOL    HW212974   0.750   5.624   0.189 -0.1456 -1.0678 -2.7166
 4220SOL     OW12975   3.064   0.799   1.272  0.6022  0.4435 -0.2554
 4220SOL    HW112976   3.134   0.863   1.263  1.2190  0.1706  1.9512
 4220SOL    HW212977   3.104   0.716   1.247  0.4481  0.5931 -1.0034
 4221SOL     OW12978   4.167   0.222   4.639  0.5852  0.1180  0.1245
 4221SOL    HW112979   4.073   0.209   4.645  0.5053  0.4204 -0.3603
 4221SOL    HW212980   4.201   0.138   4.608  0.3936  0.1998 -0.3261
 4222SOL     OW12981   1.844   0.470   2.781 -0.0658  0.0507  0.2503
 4222SOL    HW112982   1.915   0.467   2.845 -1.0998 -1.5204  1.4060
 4222SOL    HW212983   1.780   0.407   2.814 -1.3516  0.3653 -1.5201
 4223SOL     OW12984   3.508   4.987   1.394 -0.2783  0.2706  0.1817
 4223SOL    HW112985   3.428   5.021   1.434 -0.5948  1.5434 -1.4245
 4223SOL    HW212986   3.567   5.062   1.390  0.2093 -0.1386 -0.5594
 4224SOL     OW12987   2.440   1.936   1.071  0.5170  0.8091 -0.2176
 4224SOL    HW112988   2.383   2.005   1.105 -1.4766  0.1223 -1.9539
 4224SOL    HW212989   2.490   1.906   1.147 -0.8768  1.9903  1.2233
 4225SOL     OW12990   3.136   1.824   4.648  0.1070 -0.2899  0.2288
 4225SOL    HW112991   3.052   1.807   4.691 -0.1441 -0.0783 -0.1778
 4225SOL    HW212992   3.114   1.835   4.556  0.5205  0.2699  0.1972
 4226SOL     OW12993   4.405   0.070   3.023  0.6478 -0.4828  0.0831
 4226SOL    HW112994   4.371   0.154   3.052  0.7608 -0.1691 -0.6656
 4226SOL    HW212995   4.496   0.069   3.051  0.6345 -0.3680  0.1277
 4227SOL     OW12996   2.680   3.830   4.306  0.1273  0.5579  0.0650
 4227SOL    HW112997   2.684   3.735   4.320 -1.5336  0.1943 -1.5710
 4227SOL    HW212998   2.747   3.865   4.364 -0.3292 -1.4669  1.9501
 4228SOL     OW12999   3.819   1.058   1.465  0.3753  0.1492  0.2987
 4228SOL    HW113000   3.859   0.981   1.424  1.1713  0.3136  0.7421
 4228SOL    HW213001   3.864   1.066   1.549 -0.7217  0.2450  0.8957
 4229SOL     OW13002   3.775   1.038   0.369 -0.6873  0.2262  0.0835
 4229SOL    HW113003   3.837   1.020   0.298  1.1047 -0.6834  1.7943
 4229SOL    HW213004   3.695   0.991   0.343  0.2796 -0.9888 -0.8014
 4230SOL     OW13005   0.862   0.953   0.922  0.6296  0.5144  0.4304
 4230SOL    HW113006   0.911   0.917   0.848 -0.4041  1.7550 -0.9141
 4230SOL    HW213007   0.927   0.958   0.993  1.5072 -1.2114 -0.1919
 4231SOL     OW13008   0.026   4.558   4.305 -0.0516  0.3868  0.5884
 4231SOL    HW113009   0.045   4.548   4.211  0.6860  1.2716  0.6296
 4231SOL    HW213010   0.106   4.530   4.348 -0.0298  0.9469  0.9139
 4232SOL     OW13011   1.455   3.165   1.591  0.0882 -0.3789  0.4037
 4232SOL    HW113012   1.521   3.095   1.596 -0.6515 -1.1600 -0.4817
 4232SOL    HW213013   1.397   3.138   1.520  0.9368  2.1199 -1.3804
 4233SOL     OW13014   0.333   0.232   0.401 -0.0461  0.5149  0.6118
 4233SOL    HW113015   0.351   0.172   0.473  0.7416 -2.4087 -1.8271
 4233SOL    HW213016   0.411   0.288   0.397  0.2962  0.1108  1.4575
 4234SOL     OW13017   2.185   1.329   3.478  0.2662  0.0279  0.4027
 4234SOL    HW113018   2.229   1.371   3.404 -1.5826 -0.6929 -1.2211
 4234SOL    HW213019   2.256   1.291   3.530  1.7624  2.3186  0.1744
 4235SOL     OW13020   4.129   3.050   1.397  0.1914 -0.5823  0.4194
 4235SOL    HW113021   4.189   3.053   1.471 -1.2022 -1.5009  1.6415
 4235SOL    HW213022   4.094   2.961   1.398 -0.5770 -0.3148 -0.7503
 4236SOL     OW13023   0.618   0.161   0.110  0.0783  0.6502 -0.1105
 4236SOL    HW113024   0.621   0.155   0.015 -0.0333 -0.4314 -0.0678
 4236SOL    HW213025   0.644   0.250   0.130 -0.8063  1.1828 -1.2002
 4237SOL     OW13026   0.451   3.899   2.589 -0.2254  0.1344 -0.0560
 4237SOL    HW113027   0.445   3.963   2.660  0.9385 -1.3305  1.4428
 4237SOL    HW213028   0.367   3.906   2.544 -1.2493  0.7072  1.8221
 4238SOL     OW13029   5.148   4.362   0.747 -1.1245 -0.3748  0.1804
 4238SOL    HW113030   5.230   4.314   0.751 -1.0849 -0.2475  1.2316
 4238SOL    HW213031   5.108   4.336   0.664 -0.1670 -0.6665 -0.1925
 4239SOL     OW13032   2.456   0.316   0.955  0.0967 -0.4411 -0.0446
 4239SOL    HW113033   2.405   0.243   0.919 -0.1393  0.1381 -0.9156
 4239SOL    HW213034   2.464   0.296   1.048 -0.4228 -1.3064 -0.1745
 4240SOL     OW13035   0.134   3.380   0.347 -0.7594  0.3902  0.2701
 4240SOL    HW113036   0.222   3.343   0.351 -0.2989  1.3477 -0.6313
 4240SOL    HW213037   0.076   3.304   0.357  0.1275 -0.0960  2.2448
 4241SOL     OW13038   1.480   3.875   1.322 -0.3098 -0.1322 -0.6120
 4241SOL    HW113039   1.505   3.828   1.243 -0.4292  0.5402 -1.0543
 4241SOL    HW213040   1.401   3.924   1.298 -0.8315 -0.5670  0.1641
 4242SOL     OW13041   0.538   2.081   5.003 -0.1149  0.6413 -0.2883
 4242SOL    HW113042   0.631   2.081   4.979  0.5200 -1.6779  1.8126
 4242SOL    HW213043   0.529   2.008   5.064 -2.9575  2.0103  1.0917
 4243SOL     OW13044   5.124   4.077   3.784  0.5880  0.1354  0.4928
 4243SOL    HW113045   5.045   4.104   3.736  0.9317  1.9957  0.8850
 4243SOL    HW213046   5.168   4.160   3.804  1.8152 -0.7810  1.6814
 4244SOL     OW13047   3.485   1.639   1.351  0.1540 -0.9924  0.6216
 4244SOL    HW113048   3.405   1.679   1.318  1.4726  1.0472 -0.2912
 4244SOL    HW213049   3.457   1.593   1.431 -2.2518 -2.1217 -0.7331
 4245SOL     OW13050   5.057   3.428   3.028  0.0789 -0.2351 -0.2453
 4245SOL    HW113051   5.012   3.365   3.084 -0.3352  0.0096 -0.3007
 4245SOL    HW213052   5.007   3.509   3.037 -0.1774 -0.2722 -1.1934
 4246SOL     OW13053   0.722   1.517   3.999 -0.8431  0.2352 -0.3417
 4246SOL    HW113054   0.802   1.465   3.995 -1.5664 -0.9102 -0.7405
 4246SOL    HW213055   0.748   1.605   3.974  0.3669 -0.0059  0.0119
 4247SOL     OW13056   0.262   2.954   2.487  0.1720 -0.7692 -0.0971
 4247SOL    HW113057   0.243   2.996   2.403 -0.3925 -2.1416 -0.6785
 4247SOL    HW213058   0.316   3.018   2.534 -0.5849  0.5556 -0.9756
 4248SOL     OW13059   1.517   0.517   3.204 -0.2612  0.2451  0.2926
 4248SOL    HW113060   1.590   0.577   3.220  1.8295 -1.7645 -0.9904
 4248SOL    HW213061   1.494   0.530   3.112 -1.0853  0.3770  0.5081
 4249SOL     OW13062   3.007   0.372   0.340  0.0071 -0.1064  0.1861
 4249SOL    HW113063   3.006   0.401   0.432 -0.7838 -0.3912  0.2704
 4249SOL    HW213064   3.013   0.276   0.345 -4.6285 -0.6247  0.1062
 4250SOL     OW13065   5.344   2.936   0.453 -0.3890 -0.3131 -0.9010
 4250SOL    HW113066   5.253   2.958   0.473 -0.3393 -1.1653  0.3576
 4250SOL    HW213067   5.340   2.896   0.366 -1.1301  0.1484 -1.0919
 4251SOL     OW13068   3.355   3.748   0.236 -0.1417 -0.2977  0.1373
 4251SOL    HW113069   3.331   3.668   0.283  0.2001 -0.1049  0.6521
 4251SOL    HW213070   3.436   3.725   0.191  1.6243  0.5814  2.6381
 4252SOL     OW13071   4.334   0.910   2.940 -0.0166 -1.0585 -0.5580
 4252SOL    HW113072   4.425   0.879   2.932 -0.2124 -2.4159  1.6133
 4252SOL    HW213073   4.283   0.845   2.891 -0.0305 -1.7491  0.3576
 4253SOL     OW13074   5.047   0.535   1.069 -0.3018 -0.0285 -0.6526
 4253SOL    HW113075   5.047   0.523   0.974  2.8109 -1.5903 -0.5808
 4253SOL    HW213076   5.008   0.455   1.104 -0.9069  0.2936 -0.5728
 4254SOL     OW13077   4.110   0.154   1.745  0.3518  0.3360  0.2570
 4254SOL    HW113078   4.202   0.177   1.758  0.7795 -0.1815 -1.6664
 4254SOL    HW213079   4.090   0.186   1.657 -0.8146 -1.0981 -0.0213
 4255SOL     OW13080   3.640   1.518   4.799 -0.0611  0.4603 -0.2370
 4255SOL    HW113081   3.674   1.599   4.759 -0.1064 -0.5286 -2.3812
 4255SOL    HW213082   3.643   1.453   4.729 -0.6040 -1.2740  1.2695
 4256SOL     OW13083   2.243   2.236   4.773  0.3720 -0.3957 -0.0307
 4256SOL    HW113084   2.249   2.240   4.868  1.1286 -1.5766  0.0012
 4256SOL    HW213085   2.154   2.264   4.753  0.6948  1.4360  0.8834
 4257SOL     OW13086   0.277   0.839   5.228 -0.2471  0.4146  0.4913
 4257SOL    HW113087   0.279   0.934   5.238  1.7784  0.3202  1.4270
 4257SOL    HW213088   0.236   0.824   5.143 -0.5006  2.1087  0.2893
 4258SOL     OW13089   1.938   1.457   4.449  0.0223  0.4288  0.8147
 4258SOL    HW113090   1.973   1.439   4.536 -0.6237 -1.0633  0.7946
 4258SOL    HW213091   1.847   1.483   4.466 -0.1940 -0.1603  0.5791
 4259SOL     OW13092   1.761   1.682   5.067 -0.2236 -0.5431 -0.4690
 4259SOL    HW113093   1.771   1.589   5.090  0.5466 -1.0238 -2.4845
 4259SOL    HW213094   1.723   1.722   5.145  0.2515 -2.3794  0.7833
 4260SOL     OW13095   0.848   4.662   5.479 -0.2700  0.2692 -0.6600
 4260SOL    HW113096   0.802   4.589   5.520 -0.3051  0.3130 -0.6215
 4260SOL    HW213097   0.844   4.733   5.544 -1.6469  0.8409 -1.3468
 4261SOL     OW13098   3.122   2.428   0.389  0.8032  0.0009  0.4301
 4261SOL    HW113099   3.072   2.420   0.471  1.5485  0.0529  0.9026
 4261SOL    HW213100   3.169   2.345   0.382 -0.0548 -0.4151 -0.4938
 4262SOL     OW13101   3.282   4.785   5.153 -0.2309 -0.1298  0.2192
 4262SOL    HW113102   3.202   4.734   5.165 -0.9321  0.7920 -0.4179
 4262SOL    HW213103   3.253   4.876   5.151  0.6520  0.1692 -1.3076
 4263SOL     OW13104   1.674   0.323   2.969  0.0058  0.0679 -0.0510
 4263SOL    HW113105   1.587   0.362   2.965 -0.2193 -0.5514 -2.0050
 4263SOL    HW213106   1.684   0.297   3.061 -1.2625  1.4401  0.5274
 4264SOL     OW13107   1.045   5.423   1.476 -0.1698 -0.0713  0.2936
 4264SOL    HW113108   1.030   5.332   1.500 -1.2833 -1.0654 -3.5010
 4264SOL    HW213109   1.110   5.419   1.406 -1.0630  1.8705 -0.7365
 4265SOL     OW13110   3.859   3.431   5.542  0.5580  0.2041 -0.2531
 4265SOL    HW113111   3.921   3.362   5.565  0.5779  0.0554 -0.7294
 4265SOL    HW213112   3.806   3.444   5.620  0.9969  0.1240  0.0618
 4266SOL     OW13113   5.265   5.474   2.798  0.1765 -0.1450 -0.1171
 4266SOL    HW113114   5.199   5.461   2.866 -0.1573 -0.3350 -0.4721
 4266SOL    HW213115   5.341   5.424   2.828 -0.1453 -0.6454 -0.1306
 4267SOL     OW13116   1.556   1.505   0.968  0.7221 -0.5817  0.3860
 4267SOL    HW113117   1.499   1.483   1.042 -2.0052 -0.2882 -1.4628
 4267SOL    HW213118   1.532   1.443   0.900  2.7653 -0.4861 -0.4925
 4268SOL     OW13119   3.925   5.388   4.542  0.5236  0.2292 -0.1538
 4268SOL    HW113120   3.939   5.330   4.617 -0.2851 -1.0885 -0.9733
 4268SOL    HW213121   3.888   5.468   4.580 -1.2186 -0.9380  0.7730
 4269SOL     OW13122   1.404   4.412   0.368  0.1378  0.0666  0.6676
 4269SOL    HW113123   1.443   4.418   0.455 -1.0220 -1.3117  1.3162
 4269SOL    HW213124   1.383   4.319   0.357 -1.7600  0.5496 -0.1793
 4270SOL     OW13125   2.834   5.313   4.794 -0.0281 -0.1515 -0.4754
 4270SOL    HW113126   2.827   5.382   4.859  1.4763  0.1992 -0.6364
 4270SOL    HW213127   2.827   5.231   4.844 -1.7493  0.0751 -0.2791
 4271SOL     OW13128   2.250   1.883   4.990  0.0707 -0.7640 -0.2331
 4271SOL    HW113129   2.234   1.933   5.070  0.4639 -1.6833  0.4280
 4271SOL    HW213130   2.295   1.804   5.019  2.5415  0.0292 -1.6044
 4272SOL     OW13131   3.117   4.548   1.336 -0.0849 -0.2477 -0.1823
 4272SOL    HW113132   3.174   4.520   1.264 -1.7257 -2.4378 -0.7369
 4272SOL    HW213133   3.159   4.626   1.371  2.2552 -0.7155 -1.7247
 4273SOL     OW13134   1.738   4.144   0.381 -0.1207 -0.2786  0.3011
 4273SOL    HW113135   1.710   4.195   0.305  0.0994 -0.2913  0.2108
 4273SOL    HW213136   1.833   4.143   0.376 -0.1257 -0.8770  0.1829
 4274SOL     OW13137   2.677   0.728   1.137 -0.6544  0.1280 -0.1703
 4274SOL    HW113138   2.615   0.693   1.074 -0.6885  0.7782 -0.4990
 4274SOL    HW213139   2.636   0.808   1.170 -0.3045  0.1897  0.1197
 4275SOL     OW13140   4.744   2.260   0.080  0.7430  0.3335 -0.0624
 4275SOL    HW113141   4.702   2.201   0.143 -0.0469 -0.8608 -1.6277
 4275SOL    HW213142   4.800   2.316   0.133 -1.8011  1.1223  1.9815
 4276SOL     OW13143   5.041   0.735   0.006 -0.0529 -0.1311 -0.0120
 4276SOL    HW113144   5.014   0.684   0.082 -0.1909 -1.2863 -0.8274
 4276SOL    HW213145   5.137   0.728   0.006  0.0668  1.0236  0.8194
 4277SOL     OW13146   4.224   4.002   5.028 -0.2588  0.1732  0.1303
 4277SOL    HW113147   4.304   4.051   5.045  0.0978 -0.9072  1.7667
 4277SOL    HW213148   4.168   4.022   5.103 -0.9756 -0.2114 -0.2924
 4278SOL     OW13149   2.726   4.710   4.615 -0.3887  0.2384 -0.6054
 4278SOL    HW113150   2.763   4.625   4.640 -0.4675  0.2359 -0.4999
 4278SOL    HW213151   2.646   4.718   4.666 -0.2581  0.4818 -0.4344
 4279SOL     OW13152   3.947   0.719   0.056  0.1398 -0.0228  0.0331
 4279SOL    HW113153   3.957   0.650  -0.009 -1.3327  0.9043 -1.2389
 4279SOL    HW213154   3.875   0.689   0.112  0.2759 -0.0483  0.1943
 4280SOL     OW13155   1.436   0.342   2.652 -0.1123  0.2187  0.1522
 4280SOL    HW113156   1.427   0.258   2.696 -0.1205 -0.9563 -1.9300
 4280SOL    HW213157   1.347   0.378   2.650 -0.2208 -0.0388  0.4809
 4281SOL     OW13158   3.685   3.685   1.590 -0.3083  0.5617 -0.1994
 4281SOL    HW113159   3.705   3.700   1.498  0.8452 -0.1864 -0.0981
 4281SOL    HW213160   3.681   3.773   1.629 -0.5084  0.8668 -0.9023
 4282SOL     OW13161   4.497   2.974   3.690 -0.0540  0.1695  0.1838
 4282SOL    HW113162   4.468   3.065   3.694  0.5353  0.3133  1.6821
 4282SOL    HW213163   4.425   2.927   3.647  0.1839  1.5249 -1.8519
 4283SOL     OW13164   2.994   4.075   1.564  0.1201  0.1330 -0.5564
 4283SOL    HW113165   3.024   4.164   1.549  1.2365 -0.2492 -0.7056
 4283SOL    HW213166   2.982   4.070   1.659 -0.5660  0.6237 -0.6146
 4284SOL     OW13167   1.992   4.043   1.666 -0.0441  0.1734 -0.1251
 4284SOL    HW113168   2.082   4.025   1.693 -0.3681 -1.7397 -0.1717
 4284SOL    HW213169   1.938   4.004   1.735 -0.8379  0.8467 -0.3594
 4285SOL     OW13170   3.346   5.381   3.102  0.5870 -0.9619 -0.0576
 4285SOL    HW113171   3.251   5.391   3.091  0.7055  0.8434  0.2772
 4285SOL    HW213172   3.383   5.420   3.023  1.0674 -1.8775 -0.2977
 4286SOL     OW13173   0.736   5.526   3.785  0.8280 -0.3507  0.1544
 4286SOL    HW113174   0.748   5.535   3.691 -1.6174 -0.1616 -0.2082
 4286SOL    HW213175   0.747   5.614   3.820 -0.8073  0.0862 -0.3471
 4287SOL     OW13176   3.690   2.026   3.764  0.6075  0.0198 -0.1457
 4287SOL    HW113177   3.771   2.027   3.713  0.4250  1.1971 -0.4372
 4287SOL    HW213178   3.631   1.971   3.713  0.2839  1.5202 -1.4712
 4288SOL     OW13179   0.751   2.780   1.320 -0.5092 -0.4208 -0.7126
 4288SOL    HW113180   0.727   2.815   1.406 -0.8015 -1.8294 -0.1918
 4288SOL    HW213181   0.803   2.849   1.280  0.3537 -0.0461  0.9410
 4289SOL     OW13182   4.587   1.260   1.618 -0.0712  0.7931 -0.4041
 4289SOL    HW113183   4.559   1.314   1.692 -2.6485 -1.0360  0.1193
 4289SOL    HW213184   4.527   1.283   1.547 -0.4807 -0.5491 -0.5129
 4290SOL     OW13185   4.839   5.403   1.997 -0.5064  0.6629 -0.2617
 4290SOL    HW113186   4.818   5.315   2.029 -2.2066  0.7355 -1.0477
 4290SOL    HW213187   4.837   5.394   1.901  1.4961  1.1024 -0.3799
 4291SOL     OW13188   3.418   1.135   0.024 -0.1175  0.2223 -0.3590
 4291SOL    HW113189   3.408   1.148  -0.070 -1.5351 -2.9265 -0.7820
 4291SOL    HW213190   3.334   1.099   0.052  0.7391 -0.1978  1.8637
 4292SOL     OW13191   4.294   0.954   3.220  0.3202 -0.3968 -0.4665
 4292SOL    HW113192   4.317   0.933   3.129 -0.2642  0.9222 -0.9562
 4292SOL    HW213193   4.262   1.044   3.215 -1.3830 -0.8991  0.7743
 4293SOL     OW13194   4.218   3.849   4.063 -0.2417  0.0563  0.0036
 4293SOL    HW113195   4.245   3.856   3.972 -0.0833 -1.2707 -0.0803
 4293SOL    HW213196   4.161   3.772   4.064  0.8434 -0.7742  1.2553
 4294SOL     OW13197   1.289   2.203   4.224 -0.4216  0.1940  0.7722
 4294SOL    HW113198   1.250   2.155   4.151 -0.1091 -0.0657  0.7738
 4294SOL    HW213199   1.350   2.264   4.183 -1.0555  0.8326  0.7477
 4295SOL     OW13200   4.281   0.739   0.096 -0.0009 -0.1465 -0.6102
 4295SOL    HW113201   4.256   0.647   0.081 -0.2455 -0.0351 -0.9031
 4295SOL    HW213202   4.225   0.768   0.168  1.4046 -0.7799  0.7885
 4296SOL     OW13203   3.517   2.148   0.004  0.3287  0.2708  0.5860
 4296SOL    HW113204   3.534   2.055  -0.009  0.1567  0.5448 -1.9793
 4296SOL    HW213205   3.576   2.173   0.075  0.9302 -1.6024  0.8016
 4297SOL     OW13206   2.414   1.620   1.565  0.0955 -0.3830  0.2769
 4297SOL    HW113207   2.401   1.713   1.586  0.2195 -0.6047  1.4009
 4297SOL    HW213208   2.326   1.586   1.549  0.1539  0.2720 -1.8409
 4298SOL     OW13209   5.527   3.756   1.890  0.5442  0.4975 -0.0596
 4298SOL    HW113210   5.566   3.752   1.977  0.2001  1.1941  0.1403
 4298SOL    HW213211   5.600   3.776   1.832  1.1329 -1.9566 -0.2336
 4299SOL     OW13212   5.407   3.442   4.100 -0.2312 -0.0767  0.3927
 4299SOL    HW113213   5.391   3.527   4.058  1.1231  0.4264  0.8117
 4299SOL    HW213214   5.391   3.458   4.193  1.2854  0.0980  0.6461
 4300SOL     OW13215   5.419   4.230   0.068  0.0948 -0.0529 -0.2846
 4300SOL    HW113216   5.429   4.154   0.127 -1.2883  0.3774  0.5706
 4300SOL    HW213217   5.372   4.195  -0.008 -2.4283  0.2440  1.0005
 4301SOL     OW13218   0.780   0.101   4.068 -0.0074  0.0480  0.0529
 4301SOL    HW113219   0.757   0.137   3.982 -0.3334 -1.7954 -0.6652
 4301SOL    HW213220   0.697   0.097   4.116 -0.0536 -0.2327 -0.0520
 4302SOL     OW13221   4.501   1.584   5.163 -0.0666  0.2920  0.2404
 4302SOL    HW113222   4.528   1.673   5.185 -0.3834  0.2761  0.7004
 4302SOL    HW213223   4.544   1.566   5.079  0.7551  0.5311  0.6088
 4303SOL     OW13224   3.110   3.246   2.770  0.5379 -0.5644 -0.0288
 4303SOL    HW113225   3.112   3.189   2.693  2.4361 -1.0750  0.3590
 4303SOL    HW213226   3.066   3.325   2.739 -2.6848 -2.3412 -0.4426
 4304SOL     OW13227   1.689   5.250   3.876  0.7420 -0.0698 -0.2260
 4304SOL    HW113228   1.641   5.319   3.830 -0.7318 -2.1823 -2.1757
 4304SOL    HW213229   1.742   5.208   3.808  1.0661 -1.2530  0.7109
 4305SOL     OW13230   3.999   2.706   1.381  0.2714 -0.3885  0.0121
 4305SOL    HW113231   3.957   2.769   1.322  1.4178  0.7692  0.3895
 4305SOL    HW213232   3.931   2.641   1.398 -1.6996  1.8107  1.2516
 4306SOL     OW13233   0.038   0.355   2.817  0.6173  0.4200 -0.2287
 4306SOL    HW113234   0.123   0.332   2.856  0.6676 -1.7471 -1.4636
 4306SOL    HW213235   0.059   0.371   2.724 -0.2896 -0.1022 -0.5335
 4307SOL     OW13236   1.038   4.363   2.239 -0.1925  0.6388  0.1590
 4307SOL    HW113237   1.041   4.338   2.331 -1.1647  3.0624  0.9029
 4307SOL    HW213238   1.099   4.436   2.231  1.9077 -1.1488 -1.7600
 4308SOL     OW13239   3.782   2.026   4.032  0.3310  0.3717  0.0805
 4308SOL    HW113240   3.808   1.935   4.046 -1.3234 -0.4765 -1.8749
 4308SOL    HW213241   3.740   2.026   3.946 -1.7022  2.5533  0.9749
 4309SOL     OW13242   0.373   0.715   4.295 -0.5764  0.2248  0.8007
 4309SOL    HW113243   0.459   0.704   4.336 -0.4644  0.8951  0.7629
 4309SOL    HW213244   0.344   0.626   4.275  1.0562  0.0376 -1.1030
 4310SOL     OW13245   1.374   0.577   3.453 -0.1735  0.4636  0.1282
 4310SOL    HW113246   1.313   0.650   3.442 -0.4745  0.0366 -1.2910
 4310SOL    HW213247   1.416   0.568   3.368  1.6342  0.5098  0.9697
 4311SOL     OW13248   1.725   1.299   0.059  0.3985  0.1313  0.4945
 4311SOL    HW113249   1.804   1.350   0.041  0.1171 -0.0959 -1.7114
 4311SOL    HW213250   1.653   1.362   0.050  0.2345  0.0016  0.8815
 4312SOL     OW13251   1.257   0.585   1.446 -0.1023  0.1411 -0.0685
 4312SOL    HW113252   1.194   0.527   1.403 -0.9880  0.2063  1.0779
 4312SOL    HW213253   1.301   0.528   1.509  0.2606  0.3307 -0.1502
 4313SOL     OW13254   0.019   3.887   2.773  0.0105 -0.5942 -0.5512
 4313SOL    HW113255   0.007   3.824   2.843 -0.9599  1.3465  1.1383
 4313SOL    HW213256  -0.070   3.907   2.743  0.4203 -2.1808 -3.2060
 4314SOL     OW13257   4.371   4.637   4.847 -0.2690  0.5750  0.1327
 4314SOL    HW113258   4.283   4.661   4.818 -1.6367 -0.5672  3.0016
 4314SOL    HW213259   4.396   4.564   4.791 -1.9307 -0.2618  0.4479
 4315SOL     OW13260   1.118   0.896   4.569  0.2727  0.3129  0.1734
 4315SOL    HW113261   1.053   0.870   4.503  1.0285  0.6280 -0.7194
 4315SOL    HW213262   1.187   0.831   4.561  0.8000  0.8874  0.0066
 4316SOL     OW13263   5.267   3.116   5.332 -0.6514  0.2593  0.0595
 4316SOL    HW113264   5.250   3.080   5.419  0.2353 -0.5024 -0.0583
 4316SOL    HW213265   5.235   3.049   5.272  1.7318 -0.7647 -0.1624
 4317SOL     OW13266   5.461   3.215   3.753  0.0671  0.3714  0.2028
 4317SOL    HW113267   5.374   3.203   3.790  1.1847  0.9469  3.2835
 4317SOL    HW213268   5.492   3.126   3.734 -0.7181  0.0942  0.2001
 4318SOL     OW13269   5.239   1.535   5.547 -0.0088 -0.4611  0.1772
 4318SOL    HW113270   5.187   1.471   5.499 -1.4855 -0.3631  1.5447
 4318SOL    HW213271   5.210   1.620   5.514  0.9256 -0.4374 -0.6289
 4319SOL     OW13272   0.711   5.201   2.666 -0.4248 -0.5916 -0.1788
 4319SOL    HW113273   0.784   5.232   2.612 -0.7294  1.8459  0.6464
 4319SOL    HW213274   0.688   5.116   2.629  1.6239 -0.6017 -1.6215
 4320SOL     OW13275   2.666   2.671   1.875  0.2080 -0.3086  0.5386
 4320SOL    HW113276   2.643   2.761   1.899  0.7305  0.3737 -1.3276
 4320SOL    HW213277   2.589   2.639   1.827 -0.3495 -1.2152  1.9886
 4321SOL     OW13278   3.899   3.506   2.485 -0.0403  0.5215  0.2152
 4321SOL    HW113279   3.975   3.561   2.464 -0.2343  0.5901 -0.3465
 4321SOL    HW213280   3.880   3.524   2.577 -0.0482  1.3470  0.0656
 4322SOL     OW13281   3.170   2.564   3.453 -0.0585 -0.2510 -0.1075
 4322SOL    HW113282   3.088   2.580   3.499  0.8647 -0.5691  1.7298
 4322SOL    HW213283   3.196   2.476   3.479  0.7203 -0.2791 -0.9264
 4323SOL     OW13284   3.234   2.523   0.835  0.2631 -0.0599  0.1670
 4323SOL    HW113285   3.304   2.477   0.790 -0.5291 -0.5164 -0.6360
 4323SOL    HW213286   3.263   2.614   0.839  1.5393 -0.4782  1.1523
 4324SOL     OW13287   2.279   0.435   3.875  0.1138 -0.3648  0.2965
 4324SOL    HW113288   2.265   0.482   3.792 -1.7384 -1.5349 -0.1093
 4324SOL    HW213289   2.205   0.376   3.882  1.2065 -1.6310  1.9139
 4325SOL     OW13290   2.564   2.006   0.827  0.9457 -0.5292 -0.1565
 4325SOL    HW113291   2.616   2.087   0.825  1.7273 -1.0264 -1.1310
 4325SOL    HW213292   2.535   1.999   0.917  2.0413  0.1125  0.2757
 4326SOL     OW13293   1.533   5.338   2.738  0.6898 -0.5943  0.3214
 4326SOL    HW113294   1.517   5.393   2.815 -2.0994  0.1726 -0.6642
 4326SOL    HW213295   1.546   5.250   2.774 -0.7863 -0.2914  1.7138
 4327SOL     OW13296   1.422   2.674   2.901  0.6378  0.5874  0.0251
 4327SOL    HW113297   1.449   2.661   2.810 -0.4478  1.9385 -0.5202
 4327SOL    HW213298   1.496   2.640   2.953  1.1841 -0.3773 -1.3382
 4328SOL     OW13299   4.805   3.011   0.753  0.5898  0.1738 -0.0161
 4328SOL    HW113300   4.842   3.026   0.840  2.2904  1.9152 -0.9703
 4328SOL    HW213301   4.810   2.916   0.741  1.6364  0.0341  1.2383
 4329SOL     OW13302   4.088   2.216   5.393  0.5796  0.4754  0.1389
 4329SOL    HW113303   4.082   2.231   5.487 -0.0330 -0.7225  0.3122
 4329SOL    HW213304   4.182   2.221   5.374  0.8167 -0.3500  1.0189
 4330SOL     OW13305   3.476   3.882   2.305  0.0024 -0.0646  0.5424
 4330SOL    HW113306   3.508   3.918   2.388  0.3644 -0.2829  0.5011
 4330SOL    HW213307   3.423   3.952   2.267 -0.7368 -0.2066  1.2745
 4331SOL     OW13308   4.693   0.055   3.850  0.0718 -0.1079 -0.5047
 4331SOL    HW113309   4.747   0.072   3.773 -1.6535  0.2679 -1.6837
 4331SOL    HW213310   4.751   0.072   3.924  1.6800 -0.1680 -1.7082
 4332SOL     OW13311   3.463   4.659   1.386  0.0372 -0.0745 -0.0692
 4332SOL    HW113312   3.550   4.695   1.403  0.0989 -0.2542  0.0009
 4332SOL    HW213313   3.407   4.700   1.452 -0.0578  0.5186 -0.5078
 4333SOL     OW13314   0.793   2.914   0.297  0.4079  0.1758  0.1267
 4333SOL    HW113315   0.874   2.865   0.281  0.9698  0.6673  1.3310
 4333SOL    HW213316   0.761   2.881   0.380 -0.0793  0.7056  0.1572
 4334SOL     OW13317   2.113   2.935   1.156 -0.0902  0.3662 -0.0989
 4334SOL    HW113318   2.162   2.855   1.140  0.6027  1.0561 -1.6992
 4334SOL    HW213319   2.025   2.918   1.120 -0.4379 -0.1935  0.9868
 4335SOL     OW13320   4.298   2.115   3.152  0.1109 -0.4528 -0.0783
 4335SOL    HW113321   4.236   2.049   3.180  0.9543 -1.5291 -0.6833
 4335SOL    HW213322   4.352   2.072   3.086  2.1478  0.1143  1.1268
 4336SOL     OW13323   0.765   0.025   2.082  0.0589 -0.5371  0.3189
 4336SOL    HW113324   0.750   0.113   2.047 -1.4758 -0.4656  1.0730
 4336SOL    HW213325   0.704  -0.030   2.034 -1.7563 -0.5143  2.4277
 4337SOL     OW13326   5.052   3.615   1.855 -0.1520 -0.7747 -0.3333
 4337SOL    HW113327   5.143   3.628   1.828  0.6181 -0.3681  2.2061
 4337SOL    HW213328   5.001   3.630   1.775  1.8898  0.4688 -1.4976
 4338SOL     OW13329   5.440   4.028   1.123  0.0864  0.3425 -0.9955
 4338SOL    HW113330   5.471   3.942   1.097 -2.0731 -0.2849 -1.7141
 4338SOL    HW213331   5.409   4.068   1.042 -0.6754  1.0192 -0.3931
 4339SOL     OW13332   5.289   5.034   0.623  0.4004  0.1681  0.4593
 4339SOL    HW113333   5.367   5.036   0.568 -0.5490  1.4266 -0.9400
 4339SOL    HW213334   5.218   5.010   0.563 -0.5505  0.8056  1.2913
 4340SOL     OW13335   5.181   3.074   3.469  0.4267 -0.3620 -0.6098
 4340SOL    HW113336   5.180   3.130   3.546  4.0422 -2.1489  0.9650
 4340SOL    HW213337   5.094   3.033   3.468 -0.4062  1.2297  1.2822
 4341SOL     OW13338   5.551   3.177   0.005  0.5315  0.2270 -0.3262
 4341SOL    HW113339   5.534   3.092  -0.035 -0.8353  0.2916  0.0770
 4341SOL    HW213340   5.473   3.196   0.056  1.0338  1.4910  0.0167
 4342SOL     OW13341   1.976   4.045   0.290  0.0309 -0.2388  0.5851
 4342SOL    HW113342   1.961   3.991   0.213 -1.1789 -0.8602  1.2259
 4342SOL    HW213343   2.070   4.063   0.289 -0.1756  0.9629 -1.7801
 4343SOL     OW13344   1.460   4.508   3.758 -0.4010  0.4549 -0.0665
 4343SOL    HW113345   1.416   4.588   3.786  0.8324  0.7071  1.2723
 4343SOL    HW213346   1.430   4.441   3.819  0.1343  0.3676  0.1085
 4344SOL     OW13347   0.681   2.997   5.466  0.7024 -0.3157 -0.1931
 4344SOL    HW113348   0.777   2.999   5.466  0.7569 -1.7734 -0.2417
 4344SOL    HW213349   0.657   3.018   5.556  1.0748 -0.0987 -0.1420
 4345SOL     OW13350   1.570   5.080   2.857  0.1967  0.1210  0.4941
 4345SOL    HW113351   1.604   4.993   2.837  0.2185  0.3595 -0.5473
 4345SOL    HW213352   1.505   5.065   2.926  1.4998 -0.4900  1.6310
 4346SOL     OW13353   2.899   5.294   0.620 -0.1675  0.1561 -0.3389
 4346SOL    HW113354   2.960   5.258   0.555  0.5074  0.8825 -0.1257
 4346SOL    HW213355   2.956   5.327   0.690 -0.8517  0.0628  0.2762
 4347SOL     OW13356   4.874   0.148   0.869  0.2820 -0.7259 -0.3533
 4347SOL    HW113357   4.822   0.112   0.941 -0.7047  2.0608  0.4598
 4347SOL    HW213358   4.821   0.131   0.791  0.1142 -1.4763 -0.0916
 4348SOL     OW13359   2.586   1.963   5.254 -0.1664  0.0017 -0.5049
 4348SOL    HW113360   2.527   1.970   5.179  0.4705  1.3395 -0.9068
 4348SOL    HW213361   2.540   2.008   5.325  0.2168  0.7925 -0.7417
 4349SOL     OW13362   3.677   2.750   0.954  0.2868 -0.0133 -0.3164
 4349SOL    HW113363   3.750   2.812   0.947 -1.7820  2.6490  0.1157
 4349SOL    HW213364   3.653   2.753   1.047 -0.1886 -1.1139 -0.3917
 4350SOL     OW13365   1.317   3.199   5.357 -0.2248 -0.4164  0.1787
 4350SOL    HW113366   1.242   3.219   5.303  0.2869 -0.6807 -0.6453
 4350SOL    HW213367   1.389   3.186   5.295  0.6034  0.2642  0.9690
 4351SOL     OW13368   1.122   1.397   0.556 -0.2648 -0.0372 -0.0598
 4351SOL    HW113369   1.101   1.315   0.602 -1.0034  1.2041  1.9588
 4351SOL    HW213370   1.114   1.464   0.623  0.7755  1.6635 -1.5648
 4352SOL     OW13371   0.972   2.406   0.130 -0.2937  0.3422 -0.3069
 4352SOL    HW113372   0.973   2.365   0.044 -0.8581  1.6167 -0.9518
 4352SOL    HW213373   0.879   2.407   0.155 -0.4076  1.9149 -0.6785
 4353SOL     OW13374   0.105   5.442   3.284 -0.4322  0.2342  0.2294
 4353SOL    HW113375   0.039   5.398   3.338  0.0138 -0.8648 -0.0986
 4353SOL    HW213376   0.122   5.381   3.212 -1.8117  2.1226 -1.8229
 4354SOL     OW13377   0.068   1.681   5.517 -0.4326 -0.3651  0.8334
 4354SOL    HW113378   0.054   1.589   5.539 -0.9336 -0.0801  1.7899
 4354SOL    HW213379   0.024   1.693   5.433 -0.2474 -1.0201  0.6329
 4355SOL     OW13380   0.992   1.966   0.810 -0.1713 -0.1634 -0.6522
 4355SOL    HW113381   0.903   1.983   0.839  0.1082 -0.5523  0.5005
 4355SOL    HW213382   1.032   2.053   0.803 -0.2530 -0.0541  0.1526
 4356SOL     OW13383   3.840   1.944   2.780  0.2465  0.1694 -0.7504
 4356SOL    HW113384   3.751   1.980   2.781 -0.4073 -1.3270 -1.4774
 4356SOL    HW213385   3.882   1.984   2.704 -0.6701 -1.0145 -1.9096
 4357SOL     OW13386   1.509   4.807   0.797 -0.1443  0.0467 -0.3494
 4357SOL    HW113387   1.434   4.803   0.858 -0.3527 -1.4475 -0.6629
 4357SOL    HW213388   1.550   4.891   0.816 -0.2196 -0.3461  1.8600
 4358SOL     OW13389   4.099   1.228   2.519  0.3843 -0.5515  0.5778
 4358SOL    HW113390   4.095   1.142   2.476  2.1971 -0.6901  0.6065
 4358SOL    HW213391   4.166   1.218   2.586 -0.0813  0.6229  1.2435
 4359SOL     OW13392   3.128   5.110   3.501  0.5686 -0.6421  0.1792
 4359SOL    HW113393   3.048   5.146   3.461  0.2305 -0.5942  0.8812
 4359SOL    HW213394   3.161   5.047   3.437  1.5777  1.3978 -1.4389
 4360SOL     OW13395   2.437   3.560   1.813 -0.0581 -0.0162  0.1152
 4360SOL    HW113396   2.390   3.585   1.734  0.1265 -0.4021 -0.1204
 4360SOL    HW213397   2.511   3.509   1.781  0.5039  0.5562  0.4842
 4361SOL     OW13398   3.911   5.249   4.814  0.2205 -0.0818 -0.1167
 4361SOL    HW113399   3.992   5.291   4.843 -0.6247  0.8695  1.0007
 4361SOL    HW213400   3.873   5.214   4.895 -1.7992  1.8806 -0.1405
 4362SOL     OW13401   4.842   3.758   2.428  0.1748 -0.1278  0.4053
 4362SOL    HW113402   4.820   3.779   2.519 -1.0919  0.9225 -0.1206
 4362SOL    HW213403   4.927   3.714   2.434  0.2732  0.2214  2.0697
 4363SOL     OW13404   4.563   4.225   0.351  0.5221  0.6694  0.2133
 4363SOL    HW113405   4.492   4.182   0.303 -0.8648 -0.5973  3.1183
 4363SOL    HW213406   4.518   4.282   0.413  2.1439  1.3051  0.8477
 4364SOL     OW13407   0.560   4.754   0.246 -0.7951 -0.7635  0.6979
 4364SOL    HW113408   0.606   4.784   0.324 -0.9620 -1.3305  1.0203
 4364SOL    HW213409   0.573   4.660   0.245 -0.6987 -0.7477 -0.0285
 4365SOL     OW13410   3.949   1.419   3.814  0.4616 -0.3816 -0.4387
 4365SOL    HW113411   3.894   1.354   3.770 -0.9299 -0.1471  0.8703
 4365SOL    HW213412   3.893   1.456   3.882  2.0853  0.2496  0.6267
 4366SOL     OW13413   0.360   4.904   1.204  0.1477 -0.6254  0.0681
 4366SOL    HW113414   0.266   4.912   1.189  0.3781  1.6463 -0.4976
 4366SOL    HW213415   0.367   4.843   1.278 -1.8951  0.8079  1.5675
 4367SOL     OW13416   3.311   2.124   2.925  0.6077  0.0619  0.3775
 4367SOL    HW113417   3.322   2.069   2.848  0.7544  2.5931 -1.5197
 4367SOL    HW213418   3.395   2.169   2.934  0.8089 -0.6316  2.4427
 4368SOL     OW13419   2.227   4.123   3.295 -0.6329 -0.0972 -0.1555
 4368SOL    HW113420   2.187   4.060   3.356  1.7150 -0.9065  0.6455
 4368SOL    HW213421   2.207   4.209   3.333 -1.6640 -0.4526  0.1506
 4369SOL     OW13422   0.624   5.431   3.022  0.4397 -0.4678  0.3148
 4369SOL    HW113423   0.664   5.346   3.041  0.4768 -0.0275  2.4318
 4369SOL    HW213424   0.553   5.439   3.086 -1.3522 -0.0501 -1.6126
 4370SOL     OW13425   4.315   3.390   0.178 -0.6570  0.0314  0.6857
 4370SOL    HW113426   4.234   3.417   0.136 -0.8238 -1.0163  0.3052
 4370SOL    HW213427   4.378   3.458   0.155 -1.2700  0.5278  0.4619
 4371SOL     OW13428   5.322   4.450   3.291 -0.1843 -1.0457 -0.0318
 4371SOL    HW113429   5.287   4.538   3.277  1.0847 -0.6741 -1.0851
 4371SOL    HW213430   5.252   4.391   3.265 -1.0008 -0.3582  0.5636
 4372SOL     OW13431   3.427   2.393   4.702 -0.4371  0.2530 -0.4285
 4372SOL    HW113432   3.396   2.477   4.669 -0.5071  0.5669  0.4028
 4372SOL    HW213433   3.368   2.373   4.775  0.7086  0.3839  0.5540
 4373SOL     OW13434   0.542   4.454   0.259 -0.0529  0.5791 -0.6769
 4373SOL    HW113435   0.528   4.367   0.222  1.5540  0.9945 -2.4067
 4373SOL    HW213436   0.637   4.468   0.254 -0.1638  2.0685  0.4391
 4374SOL     OW13437   3.841   0.110   4.173 -0.2170  0.4464 -0.0984
 4374SOL    HW113438   3.912   0.175   4.182  0.8664 -0.6810 -0.2313
 4374SOL    HW213439   3.879   0.029   4.207 -1.4724 -0.1796 -0.1538
 4375SOL     OW13440   2.101   1.547   1.268  0.0876 -0.0748 -0.2503
 4375SOL    HW113441   2.133   1.559   1.357  1.9921 -0.5914 -0.8090
 4375SOL    HW213442   2.009   1.574   1.271  0.4626  1.1881  1.5581
 4376SOL     OW13443   4.751   3.707   0.899  0.3760  0.0342 -0.4580
 4376SOL    HW113444   4.659   3.697   0.921  0.7016  2.9022  3.0281
 4376SOL    HW213445   4.769   3.801   0.909  3.7873 -0.4808 -0.4420
 4377SOL     OW13446   2.137   0.014   4.406 -0.1771 -0.0658  0.2711
 4377SOL    HW113447   2.131   0.107   4.382  1.2202 -0.0143 -0.0117
 4377SOL    HW213448   2.161  -0.030   4.324  4.7694  0.1272  1.2694
 4378SOL     OW13449   2.961   0.667   4.406 -0.0274  0.0954  0.1045
 4378SOL    HW113450   2.918   0.662   4.492  0.4939  0.6681  0.4097
 4378SOL    HW213451   3.054   0.654   4.426  0.0852  0.1400 -0.3876
 4379SOL     OW13452   1.389   4.132   2.008  0.5269 -0.0166  0.4152
 4379SOL    HW113453   1.373   4.037   2.007 -1.7260  0.3028 -0.9744
 4379SOL    HW213454   1.349   4.164   1.927 -1.4476  2.4769  2.2090
 4380SOL     OW13455   3.689   5.542   3.097 -0.2212 -0.4279 -0.2561
 4380SOL    HW113456   3.772   5.495   3.104 -0.9651 -1.8994 -0.9008
 4380SOL    HW213457   3.643   5.521   3.178  0.0930  0.5692  0.2041
 4381SOL     OW13458   3.410   4.278   0.525 -0.6505 -0.0819 -0.2490
 4381SOL    HW113459   3.453   4.348   0.475 -0.4003 -1.0387 -1.4403
 4381SOL    HW213460   3.482   4.231   0.567 -0.7893  0.1597  0.2618
 4382SOL     OW13461   3.350   3.068   4.960  0.1708  0.7760 -0.1329
 4382SOL    HW113462   3.428   3.110   4.923 -0.8288  1.7199 -1.2389
 4382SOL    HW213463   3.376   3.045   5.049  2.0027  0.2583 -0.7554
 4383SOL     OW13464   2.941   2.095   0.810  0.7170  0.5068 -0.3035
 4383SOL    HW113465   2.876   2.165   0.820  0.7934  0.3022  2.3473
 4383SOL    HW213466   2.898   2.018   0.845  1.6068 -0.1737 -0.6830
 4384SOL     OW13467   4.268   4.616   0.680 -0.3078  0.3311 -0.1306
 4384SOL    HW113468   4.254   4.677   0.752 -2.0676  1.2329 -1.1912
 4384SOL    HW213469   4.347   4.648   0.636  0.4052  0.1457  0.9750
 4385SOL     OW13470   5.393   1.214   2.502 -0.6402  0.2695  0.3141
 4385SOL    HW113471   5.482   1.250   2.504  0.4005 -2.1233  1.0117
 4385SOL    HW213472   5.353   1.245   2.584 -0.2777  0.8913  0.2674
 4386SOL     OW13473   1.837   2.384   4.719  0.5094  0.4285 -0.0664
 4386SOL    HW113474   1.748   2.419   4.709  0.1548 -0.3289  0.2989
 4386SOL    HW213475   1.836   2.302   4.670 -0.0088 -1.2436  2.4998
 4387SOL     OW13476   1.507   2.715   4.741  0.0501 -0.3459 -0.1234
 4387SOL    HW113477   1.412   2.715   4.754 -0.0697  0.0668 -0.9356
 4387SOL    HW213478   1.525   2.796   4.694  0.4586 -1.5551 -2.2195
 4388SOL     OW13479   4.745   0.574   1.764  0.2165  0.2850 -0.2133
 4388SOL    HW113480   4.774   0.486   1.788  1.5612  0.6512 -0.4117
 4388SOL    HW213481   4.791   0.632   1.825  0.7621  0.9605 -1.2460
 4389SOL     OW13482   0.939   2.528   4.995  0.0627  0.0865 -0.3748
 4389SOL    HW113483   0.952   2.474   5.072  2.3266  0.7631 -0.1895
 4389SOL    HW213484   0.922   2.616   5.030 -1.6648 -0.0958 -0.6773
 4390SOL     OW13485   3.702   5.075   4.169 -0.1108 -0.3161 -0.0870
 4390SOL    HW113486   3.747   4.994   4.146 -1.8311 -1.8320  1.5780
 4390SOL    HW213487   3.750   5.109   4.244  1.1713  0.7932 -1.3376
 4391SOL     OW13488   2.271   3.038   3.449 -0.2064  0.5085  0.8225
 4391SOL    HW113489   2.276   3.094   3.526 -1.4002  2.2735 -0.2941
 4391SOL    HW213490   2.181   3.007   3.447 -0.5203  1.4149 -0.4285
 4392SOL     OW13491   5.496   0.084   2.724 -0.4573 -0.0623  0.3288
 4392SOL    HW113492   5.534   0.167   2.750  0.3042 -0.3802  0.2545
 4392SOL    HW213493   5.419   0.073   2.780 -1.0734  1.0971 -0.2581
 4393SOL     OW13494   4.365   4.771   2.495  0.6800  0.2933 -0.1320
 4393SOL    HW113495   4.396   4.862   2.493  0.6293  0.3039 -0.5193
 4393SOL    HW213496   4.361   4.749   2.588 -1.6518  1.4981  0.1343
 4394SOL     OW13497   5.097   3.534   2.663  0.1742 -0.3594  0.6511
 4394SOL    HW113498   5.118   3.601   2.598  0.3608  0.5237  1.5824
 4394SOL    HW213499   5.002   3.524   2.658  0.0543  0.5085  0.9759
 4395SOL     OW13500   3.426   5.074   2.884  0.0231  0.2917 -0.7393
 4395SOL    HW113501   3.398   5.166   2.882 -0.9737  0.0633  0.9312
 4395SOL    HW213502   3.348   5.025   2.858 -0.8313 -0.2722  2.4819
 4396SOL     OW13503   5.265   2.492   3.835  0.1400 -0.4070 -0.4194
 4396SOL    HW113504   5.307   2.474   3.919  1.1152  1.8991 -0.3598
 4396SOL    HW213505   5.312   2.567   3.800  0.8560 -2.2515 -3.8377
 4397SOL     OW13506   1.958   2.535   2.133 -0.1297 -0.1077  0.4949
 4397SOL    HW113507   1.935   2.451   2.094 -0.9330 -0.0897  0.8976
 4397SOL    HW213508   2.021   2.574   2.072  0.3037 -1.0266  0.3449
 4398SOL     OW13509   3.734   2.949   0.421 -0.3184  0.0575  0.1440
 4398SOL    HW113510   3.699   3.028   0.463 -0.1874 -0.2840  0.9064
 4398SOL    HW213511   3.695   2.950   0.334 -2.2909 -0.3102  0.9482
 4399SOL     OW13512   4.748   0.127   2.767  0.6201  0.2106 -0.8252
 4399SOL    HW113513   4.757   0.177   2.686  0.6481 -1.0208 -1.6103
 4399SOL    HW213514   4.767   0.190   2.836 -1.4520  1.8445 -1.6387
 4400SOL     OW13515   1.085   4.389   1.795  0.8778 -0.0026  0.3927
 4400SOL    HW113516   1.138   4.310   1.786  0.1582 -0.7130  2.0471
 4400SOL    HW213517   1.115   4.430   1.876  0.5954  0.9176  0.0462
 4401SOL     OW13518   5.143   3.837   3.607 -0.3756 -0.1661  0.4580
 4401SOL    HW113519   5.077   3.827   3.538 -0.9340  0.2719  0.9136
 4401SOL    HW213520   5.111   3.910   3.660  0.7716  0.4257  0.3630
 4402SOL     OW13521   3.549   3.216   1.149  0.0973  0.7842  0.2116
 4402SOL    HW113522   3.601   3.239   1.226 -1.0763  0.2611  1.1802
 4402SOL    HW213523   3.484   3.154   1.181  0.5538 -0.6593 -1.5078
 4403SOL     OW13524   5.385   5.029   2.947 -0.0557 -0.0165 -0.4884
 4403SOL    HW113525   5.296   5.034   2.981  0.1273  1.9798 -0.1483
 4403SOL    HW213526   5.375   5.035   2.852 -0.3030 -0.2660 -0.4795
 4404SOL     OW13527   5.034   0.451   3.359 -0.6502  0.3830 -0.4186
 4404SOL    HW113528   5.103   0.505   3.398 -0.0944 -2.0676  2.3964
 4404SOL    HW213529   5.081   0.386   3.307 -0.8269 -0.6879  0.7034
 4405SOL     OW13530   1.234   1.355   1.602 -0.8889 -0.6294 -0.0273
 4405SOL    HW113531   1.195   1.356   1.515  1.0051  1.2430 -0.9310
 4405SOL    HW213532   1.227   1.445   1.633  2.8436 -0.0384 -0.4217
 4406SOL     OW13533   4.668   2.761   3.700 -0.6666  0.6541  0.1079
 4406SOL    HW113534   4.761   2.774   3.720  0.0499  0.2555 -2.5713
 4406SOL    HW213535   4.631   2.849   3.703  0.2938  1.1204 -0.8449
 4407SOL     OW13536   3.184   5.493   1.688 -0.0185 -0.5173  0.6486
 4407SOL    HW113537   3.114   5.435   1.718  0.0855  0.3634  2.7525
 4407SOL    HW213538   3.265   5.448   1.715  0.1756 -0.6299 -0.0904
 4408SOL     OW13539   1.710   2.818   4.531  0.3300  0.5668  0.4323
 4408SOL    HW113540   1.719   2.798   4.438 -1.7084  1.8370 -0.1068
 4408SOL    HW213541   1.656   2.748   4.566  1.3345 -0.0689  0.7687
 4409SOL     OW13542   1.937   2.943   4.625 -0.0967  0.3619  0.0714
 4409SOL    HW113543   1.984   2.872   4.668 -0.6342 -0.5503 -0.7915
 4409SOL    HW213544   1.858   2.901   4.589 -0.1026  1.2538 -1.0205
 4410SOL     OW13545   0.426   3.476   5.521  0.1107 -0.3986 -0.1748
 4410SOL    HW113546   0.333   3.453   5.518 -0.4110  1.5019 -0.1344
 4410SOL    HW213547   0.461   3.444   5.438 -1.0238  0.4260 -1.0212
 4411SOL     OW13548   0.672   1.526   1.849  0.1148 -0.0745 -0.0273
 4411SOL    HW113549   0.766   1.535   1.839  0.2931 -0.1806  1.4492
 4411SOL    HW213550   0.639   1.523   1.759  1.4759  0.2631 -0.5582
 4412SOL     OW13551   3.672   5.467   1.239  0.1257 -0.0133 -0.2164
 4412SOL    HW113552   3.766   5.475   1.222 -0.0499  0.5909 -0.9202
 4412SOL    HW213553   3.635   5.549   1.209 -0.8053 -0.7552 -1.1548
 4413SOL     OW13554   0.140   0.753   3.716  0.0184 -0.4221  0.6764
 4413SOL    HW113555   0.100   0.803   3.645  1.4957 -2.0432 -1.4346
 4413SOL    HW213556   0.234   0.759   3.698  0.3523 -1.8914  1.7867
 4414SOL     OW13557   5.222   1.530   0.260 -0.4987 -0.0170 -0.1730
 4414SOL    HW113558   5.234   1.441   0.294 -2.3457 -1.0010 -1.8633
 4414SOL    HW213559   5.249   1.524   0.168  1.2002  1.7191  0.1449
 4415SOL     OW13560   1.629   2.154   2.356 -0.0039 -0.1714  0.0053
 4415SOL    HW113561   1.633   2.250   2.358  1.8884 -0.2259  0.7275
 4415SOL    HW213562   1.536   2.134   2.361 -0.4115  1.6123  0.3302
 4416SOL     OW13563   3.283   2.963   2.207  1.0034 -0.5571 -0.4698
 4416SOL    HW113564   3.262   2.886   2.260  2.2100  1.0120  2.4579
 4416SOL    HW213565   3.238   3.035   2.250  1.2271  0.6943 -2.2147
 4417SOL     OW13566   1.763   2.650   3.386  0.3328  0.1093 -0.4169
 4417SOL    HW113567   1.757   2.555   3.386 -0.0798  0.1332 -0.6639
 4417SOL    HW213568   1.835   2.670   3.446  0.7408 -0.3755 -0.7439
 4418SOL     OW13569   0.803   5.274   3.822  0.0719  0.1651 -0.3048
 4418SOL    HW113570   0.876   5.261   3.882 -1.2585 -2.1010  0.9697
 4418SOL    HW213571   0.792   5.369   3.818  1.6808  0.4674  1.1989
 4419SOL     OW13572   0.479   3.832   5.314  0.0602  0.0753  0.1349
 4419SOL    HW113573   0.385   3.812   5.306  0.0784 -0.3080  0.7619
 4419SOL    HW213574   0.515   3.756   5.360  0.7832 -0.0328 -0.5914
 4420SOL     OW13575   4.529   3.537   0.061 -0.7195  0.2707 -0.4374
 4420SOL    HW113576   4.606   3.538   0.005  0.6517 -0.1026  1.3355
 4420SOL    HW213577   4.492   3.625   0.054 -1.1833 -0.0601 -2.6401
 4421SOL     OW13578   2.003   0.781   3.238 -0.3799  0.4653 -0.5811
 4421SOL    HW113579   1.966   0.824   3.315 -2.9656 -1.9889 -0.3080
 4421SOL    HW213580   1.987   0.843   3.166 -0.7180  1.4605  0.3169
 4422SOL     OW13581   3.831   1.725   4.097 -0.1216 -0.2670  0.5970
 4422SOL    HW113582   3.925   1.743   4.100 -0.2576  0.5434  0.3349
 4422SOL    HW213583   3.817   1.684   4.011 -0.0981  0.2394  0.3431
 4423SOL     OW13584   1.194   2.685   4.543  0.1623 -0.7163  0.3232
 4423SOL    HW113585   1.168   2.679   4.635  0.2102 -1.6860  0.2841
 4423SOL    HW213586   1.213   2.778   4.529 -1.8142 -0.1842  0.7461
 4424SOL     OW13587   2.113   4.051   2.044 -1.0030 -0.3723  0.6242
 4424SOL    HW113588   2.043   4.005   1.998 -1.2326 -0.2576  0.8544
 4424SOL    HW213589   2.070   4.091   2.120 -1.0198  1.0684 -0.1057
 4425SOL     OW13590   0.949   0.770   0.195  0.0313 -0.2477  0.1893
 4425SOL    HW113591   1.010   0.838   0.224 -1.2805  1.6957 -1.3015
 4425SOL    HW213592   0.976   0.749   0.106 -0.2291 -0.8934  0.2584
 4426SOL     OW13593   2.198   1.783   3.152 -0.4087 -0.4599  0.4202
 4426SOL    HW113594   2.254   1.718   3.194  0.3456 -0.9032 -1.2032
 4426SOL    HW213595   2.144   1.733   3.092  0.6979  0.4366 -1.4164
 4427SOL     OW13596   4.471   2.684   5.479  0.3906 -0.0980 -0.0992
 4427SOL    HW113597   4.386   2.649   5.453 -0.7770  1.2706  1.7110
 4427SOL    HW213598   4.524   2.606   5.496 -2.0909 -1.2325  3.7129
 4428SOL     OW13599   4.871   3.580   1.093  0.3220  0.4582 -0.1706
 4428SOL    HW113600   4.830   3.630   1.022  0.1790  2.2730  1.1213
 4428SOL    HW213601   4.798   3.553   1.148  0.3321 -1.7515 -1.0925
 4429SOL     OW13602   2.855   3.015   1.494  0.4086  0.1794 -0.8897
 4429SOL    HW113603   2.906   2.967   1.429 -0.9962  1.8980 -3.4456
 4429SOL    HW213604   2.768   3.022   1.456 -0.8305  0.3397  1.7482
 4430SOL     OW13605   3.650   0.246   1.365 -0.2866  0.8478  0.4140
 4430SOL    HW113606   3.575   0.264   1.308 -1.2266  0.6702  1.5709
 4430SOL    HW213607   3.684   0.333   1.386 -0.7947  0.9774  0.7086
 4431SOL     OW13608   4.017   5.467   1.621  0.1290  0.4116  0.1079
 4431SOL    HW113609   4.066   5.386   1.636 -0.2259 -0.1485 -1.5224
 4431SOL    HW213610   4.083   5.529   1.588 -0.2210 -0.4969 -2.5871
 4432SOL     OW13611   2.864   4.866   2.605  0.1388 -0.7435 -0.2726
 4432SOL    HW113612   2.825   4.896   2.524 -0.5079  0.1320  0.3423
 4432SOL    HW213613   2.845   4.772   2.608 -1.7301 -0.4025 -0.1324
 4433SOL     OW13614   3.984   4.804   2.519 -0.1076 -0.8531 -0.0993
 4433SOL    HW113615   3.963   4.727   2.572 -0.9862 -0.6303 -0.1094
 4433SOL    HW213616   4.078   4.797   2.502 -0.2443 -2.1238 -0.4159
 4434SOL     OW13617   3.948   0.142   0.582 -0.3836 -0.3911 -0.0989
 4434SOL    HW113618   3.864   0.168   0.544  1.0267  2.0739 -1.8049
 4434SOL    HW213619   3.984   0.079   0.519 -2.0156 -3.7115  2.0161
 4435SOL     OW13620   0.166   5.328   0.823 -0.4155  0.1651 -0.2344
 4435SOL    HW113621   0.185   5.272   0.747 -1.3780 -0.7761  0.1975
 4435SOL    HW213622   0.221   5.294   0.893 -0.0360  0.5961 -0.3205
 4436SOL     OW13623   1.725   2.492   0.965  0.6956 -0.2681  0.9391
 4436SOL    HW113624   1.667   2.552   1.012 -0.9954 -3.4095  3.1955
 4436SOL    HW213625   1.710   2.513   0.872 -0.5722  2.0220  1.5637
 4437SOL     OW13626   1.086   0.832   0.798 -0.1605  0.0456 -0.5665
 4437SOL    HW113627   1.083   0.747   0.842 -0.0836  0.4078  0.1435
 4437SOL    HW213628   1.093   0.810   0.705  0.9623 -0.7188 -0.3206
 4438SOL     OW13629   4.460   1.830   2.714  0.0404 -0.5092 -0.0624
 4438SOL    HW113630   4.532   1.791   2.763 -0.0475 -0.9142 -0.2518
 4438SOL    HW213631   4.502   1.896   2.658  0.3658 -1.2584 -0.7152
 4439SOL     OW13632   1.982   2.439   1.246  0.4585  0.0173 -0.4946
 4439SOL    HW113633   1.927   2.389   1.186 -0.4774 -2.4967  2.2303
 4439SOL    HW213634   1.922   2.495   1.294  0.8814  0.3599 -0.3571
 4440SOL     OW13635   0.840   4.536   4.741 -0.4397 -0.1935 -0.2274
 4440SOL    HW113636   0.777   4.524   4.670  0.2255  0.8834 -1.0399
 4440SOL    HW213637   0.906   4.468   4.728 -0.0000  0.3728 -1.0254
 4441SOL     OW13638   5.255   2.451   2.339 -0.0751  0.7050  0.2199
 4441SOL    HW113639   5.241   2.376   2.281  0.4225  0.3136  0.5974
 4441SOL    HW213640   5.350   2.458   2.346 -0.1073  1.6854 -0.2098
 4442SOL     OW13641   4.313   5.400   1.359  0.2183 -0.4890 -0.3161
 4442SOL    HW113642   4.309   5.305   1.367  2.4430 -0.5808  0.4241
 4442SOL    HW213643   4.391   5.425   1.408 -0.3858  1.7518 -0.3705
 4443SOL     OW13644   0.257   0.237   1.213  0.3283 -0.3724  0.9936
 4443SOL    HW113645   0.279   0.145   1.226 -0.6105 -0.4890  1.8515
 4443SOL    HW213646   0.301   0.283   1.285  1.0056 -0.0949  0.4258
 4444SOL     OW13647   3.840   4.675   2.722  0.3867  0.2413  0.5817
 4444SOL    HW113648   3.760   4.719   2.694  0.7065  0.4783  0.0321
 4444SOL    HW213649   3.873   4.729   2.794  1.2958  1.4623 -0.7238
 4445SOL     OW13650   4.941   2.593   5.453 -0.8134 -0.5668 -0.3786
 4445SOL    HW113651   4.892   2.547   5.521 -1.3517  0.8239  0.1930
 4445SOL    HW213652   4.900   2.565   5.371 -0.4929 -1.8535 -0.1225
 4446SOL     OW13653   0.642   0.674   2.231 -0.2601  0.1770  0.1946
 4446SOL    HW113654   0.575   0.661   2.298  0.7165  1.0682  1.3808
 4446SOL    HW213655   0.594   0.707   2.155 -1.3665 -0.7126  0.4856
 4447SOL     OW13656   3.395   3.217   4.126 -0.3363 -0.0981  0.7577
 4447SOL    HW113657   3.486   3.198   4.152 -0.3079 -0.6062  0.2894
 4447SOL    HW213658   3.370   3.290   4.183  0.1706 -0.3328  1.3024
 4448SOL     OW13659   1.460   5.244   0.873 -0.3111 -0.4884 -0.0318
 4448SOL    HW113660   1.475   5.337   0.892 -0.4176 -0.6557  0.8855
 4448SOL    HW213661   1.366   5.232   0.887 -0.3375 -0.6930 -0.3696
 4449SOL     OW13662   1.279   2.856   2.413  0.8267 -0.1203  0.1171
 4449SOL    HW113663   1.193   2.875   2.449  0.1576 -1.2422 -0.8056
 4449SOL    HW213664   1.317   2.942   2.394 -0.7927  0.3874 -1.0435
 4450SOL     OW13665   4.105   3.465   1.061 -0.0636  0.0300 -0.1507
 4450SOL    HW113666   4.063   3.551   1.055  0.6047  0.3268 -0.6702
 4450SOL    HW213667   4.033   3.404   1.078 -0.6594  0.5754 -0.6886
 4451SOL     OW13668   3.696   0.082   3.774 -0.2811 -0.0290  0.0745
 4451SOL    HW113669   3.753   0.033   3.715 -1.3557 -1.1497 -0.0754
 4451SOL    HW213670   3.704   0.173   3.744 -0.3533 -0.4910 -1.4416
 4452SOL     OW13671   2.481   0.025   3.922 -0.1145  0.1770 -0.8466
 4452SOL    HW113672   2.400   0.008   3.873  0.7141 -2.3585 -1.5228
 4452SOL    HW213673   2.549  -0.021   3.872  1.4116  0.6570  0.7083
 4453SOL     OW13674   5.021   4.373   3.434  0.9494  0.4983 -0.3741
 4453SOL    HW113675   4.947   4.383   3.495  0.8098 -0.6071 -0.3550
 4453SOL    HW213676   4.988   4.408   3.351  0.1894 -0.5474 -0.5224
 4454SOL     OW13677   4.103   1.907   3.143 -0.3636  0.4934 -0.2384
 4454SOL    HW113678   4.172   1.845   3.118 -0.2547  1.0399 -1.3730
 4454SOL    HW213679   4.053   1.862   3.211  0.8861 -0.0598  0.3471
 4455SOL     OW13680   3.007   3.425   0.163 -0.7977 -0.0984  0.0808
 4455SOL    HW113681   3.006   3.353   0.099 -1.5981 -0.3940  0.4125
 4455SOL    HW213682   3.093   3.418   0.205 -1.5380 -2.0811  1.4352
 4456SOL     OW13683   4.920   4.044   2.620  0.5487 -0.2220 -0.8125
 4456SOL    HW113684   4.952   4.082   2.538  1.1881  0.7449 -0.1433
 4456SOL    HW213685   4.851   4.104   2.649  1.5839  0.4917  0.2721
 4457SOL     OW13686   4.815   4.999   1.489  0.5704 -0.0646  0.4503
 4457SOL    HW113687   4.892   4.993   1.433 -0.2185 -2.2846 -0.5022
 4457SOL    HW213688   4.834   4.941   1.563  0.4062  0.5651  1.0022
 4458SOL     OW13689   2.200   3.818   0.317  0.1505 -0.5150  0.4197
 4458SOL    HW113690   2.217   3.902   0.276 -0.6497  0.7042  2.4173
 4458SOL    HW213691   2.283   3.794   0.359  0.1450 -0.3237  0.5369
 4459SOL     OW13692   2.222   0.407   3.336  0.7809  0.4094  0.5811
 4459SOL    HW113693   2.227   0.323   3.290  1.5284  0.0350  1.3192
 4459SOL    HW213694   2.179   0.386   3.419 -0.0109  0.9685  0.3256
 4460SOL     OW13695   4.328   5.228   2.344  0.2296 -0.0993  0.2534
 4460SOL    HW113696   4.378   5.309   2.332  0.2838 -0.3235 -1.1492
 4460SOL    HW213697   4.238   5.251   2.319  0.0147 -0.2174  0.8740
 4461SOL     OW13698   2.681   0.197   1.496 -0.2100  0.4465  0.1310
 4461SOL    HW113699   2.766   0.185   1.537 -1.0353 -1.4030  1.3917
 4461SOL    HW213700   2.695   0.175   1.404  0.5724 -0.3540  0.4303
 4462SOL     OW13701   2.293   5.136   0.690  0.2498  0.2174  0.1107
 4462SOL    HW113702   2.333   5.062   0.644  1.0115 -0.6063  2.0190
 4462SOL    HW213703   2.306   5.210   0.631  0.1403 -0.9986 -1.5128
 4463SOL     OW13704   5.474   3.689   3.313  0.1083 -0.6044 -0.1928
 4463SOL    HW113705   5.563   3.691   3.278 -0.7647  2.3802 -2.7264
 4463SOL    HW213706   5.467   3.768   3.366 -1.7785  1.0590 -2.6455
 4464SOL     OW13707   1.161   5.221   2.906  0.5046  0.0589 -0.2584
 4464SOL    HW113708   1.091   5.175   2.860 -0.2634  1.0862 -0.1564
 4464SOL    HW213709   1.138   5.314   2.899  2.0888  0.4692 -0.6003
 4465SOL     OW13710   2.639   0.853   2.631  0.3518  0.1219 -0.1366
 4465SOL    HW113711   2.718   0.886   2.674  0.2852 -1.3690  1.2116
 4465SOL    HW213712   2.657   0.862   2.538  1.4111  1.3673  0.1488
 4466SOL     OW13713   0.396   4.171   2.088  0.3556 -0.3045 -0.5203
 4466SOL    HW113714   0.424   4.099   2.032 -1.0166 -1.4162  0.1642
 4466SOL    HW213715   0.455   4.169   2.163  1.1290  0.1158 -1.1083
 4467SOL     OW13716   3.657   3.086   0.126 -0.1832  1.0254  0.5931
 4467SOL    HW113717   3.689   3.172   0.153  0.0181  1.1879 -0.1387
 4467SOL    HW213718   3.568   3.103   0.094 -0.3676  0.8612  1.0257
 4468SOL     OW13719   2.498   1.187   5.044  0.9389  0.2133  0.2940
 4468SOL    HW113720   2.454   1.264   5.008  0.9839  0.0642 -0.0936
 4468SOL    HW213721   2.427   1.132   5.078  0.9015  0.3913  0.5029
 4469SOL     OW13722   2.983   4.001   5.218  0.3159 -0.3015 -0.4700
 4469SOL    HW113723   2.950   4.088   5.241  0.6823 -0.3350  0.2290
 4469SOL    HW213724   2.949   3.984   5.130 -1.6012 -0.3831  0.2356
 4470SOL     OW13725   2.341   3.063   2.508  0.2766 -0.5463  0.0566
 4470SOL    HW113726   2.280   3.065   2.582 -0.6672  1.5423 -0.7068
 4470SOL    HW213727   2.416   3.114   2.538 -1.1116  2.4075 -1.1382
 4471SOL     OW13728   3.081   2.910   5.514 -0.0171  0.4976  0.0027
 4471SOL    HW113729   3.055   2.926   5.605  2.1998  1.5912  0.5160
 4471SOL    HW213730   3.134   2.831   5.518 -1.1127 -0.2981 -0.6203
 4472SOL     OW13731   0.330   3.148   4.105  0.1940 -0.1699  0.0619
 4472SOL    HW113732   0.397   3.216   4.118  0.4211 -0.1333 -1.2379
 4472SOL    HW213733   0.364   3.072   4.153  1.0488 -0.0736 -0.3760
 4473SOL     OW13734   2.594   2.888   2.433 -0.0941 -0.1879 -0.2362
 4473SOL    HW113735   2.633   2.804   2.409 -2.9780 -1.5476 -0.6926
 4473SOL    HW213736   2.607   2.895   2.528 -0.7378 -1.7245 -0.0035
 4474SOL     OW13737   1.140   2.817   5.429  0.4392 -0.2477  0.1121
 4474SOL    HW113738   1.094   2.802   5.511  0.5833  0.6703  0.3714
 4474SOL    HW213739   1.230   2.790   5.446  0.3379 -0.6202  0.0669
 4475SOL     OW13740   2.892   3.324   2.328 -0.0456 -0.4432 -0.3614
 4475SOL    HW113741   2.952   3.392   2.297  0.4098  0.2545  1.8565
 4475SOL    HW213742   2.854   3.287   2.249  0.0970  2.0263 -1.6866
 4476SOL     OW13743   0.709   2.269   1.286 -0.0356  0.3654 -0.7086
 4476SOL    HW113744   0.732   2.358   1.312  1.1727  0.0047 -0.4903
 4476SOL    HW213745   0.654   2.236   1.358 -0.1485  0.7903 -0.5991
 4477SOL     OW13746   1.766   5.258   1.097  0.1857  0.1932 -0.2648
 4477SOL    HW113747   1.740   5.321   1.030  2.1297  1.1505 -0.1761
 4477SOL    HW213748   1.856   5.235   1.074 -0.7261 -3.3869 -0.8945
 4478SOL     OW13749   3.980   4.636   0.200  0.5361  0.1383 -0.0710
 4478SOL    HW113750   4.029   4.716   0.178  3.3349 -2.0751 -2.6592
 4478SOL    HW213751   4.018   4.606   0.282  1.9057 -0.2652 -0.8281
 4479SOL     OW13752   2.545   4.664   4.353  0.2199 -0.3280 -0.3918
 4479SOL    HW113753   2.495   4.595   4.397  0.1774 -0.2344 -0.2917
 4479SOL    HW213754   2.533   4.646   4.260 -0.2017 -0.1670 -0.3704
 4480SOL     OW13755   2.039   2.741   4.765 -0.0240 -0.2553  0.3825
 4480SOL    HW113756   1.991   2.694   4.833 -0.5288 -1.5614 -0.8317
 4480SOL    HW213757   2.045   2.679   4.692  0.6670  1.0288 -0.7000
 4481SOL     OW13758   5.109   4.012   2.820  0.4987  0.0294  0.5109
 4481SOL    HW113759   5.080   3.937   2.872  0.1935 -0.6013 -0.5518
 4481SOL    HW213760   5.042   4.022   2.752  1.7057 -0.2000 -0.7603
 4482SOL     OW13761   4.964   5.544   1.179  0.2859  0.2422  0.0783
 4482SOL    HW113762   4.971   5.472   1.242 -0.1657  1.7901  1.9888
 4482SOL    HW213763   5.054   5.575   1.168  0.1815  1.0971  1.4035
 4483SOL     OW13764   1.268   0.684   4.001 -0.2838  0.5800  0.0210
 4483SOL    HW113765   1.253   0.732   4.083 -1.7284 -0.7057  0.5691
 4483SOL    HW213766   1.350   0.639   4.015 -0.2280  0.8267  0.5363
 4484SOL     OW13767   1.692   1.517   4.586 -0.4562 -0.1225  0.1740
 4484SOL    HW113768   1.670   1.426   4.604 -1.0202 -0.3440 -1.4388
 4484SOL    HW213769   1.615   1.567   4.614 -0.9385 -0.3607 -0.6801
 4485SOL     OW13770   1.032   1.392   2.871  0.0129 -0.2220 -0.1340
 4485SOL    HW113771   1.024   1.473   2.820  3.7376  0.2386 -0.2521
 4485SOL    HW213772   1.049   1.325   2.805 -2.3386 -1.1006  0.0336
 4486SOL     OW13773   1.067   3.161   3.587  0.6457 -0.2019 -0.1384
 4486SOL    HW113774   1.133   3.098   3.617  0.6269 -0.7334 -1.1665
 4486SOL    HW213775   1.057   3.143   3.494 -1.8625 -0.9684  0.1997
 4487SOL     OW13776   2.628   2.939   1.945 -0.1081  0.4171  0.2259
 4487SOL    HW113777   2.711   2.953   1.991  0.3464 -1.4353  0.0391
 4487SOL    HW213778   2.623   3.011   1.881  1.9007 -0.0598 -0.5245
 4488SOL     OW13779   3.145   5.121   3.044 -0.4492 -0.1075  0.4479
 4488SOL    HW113780   3.063   5.117   3.094 -0.6750  1.2259  0.2141
 4488SOL    HW213781   3.142   5.044   2.987 -0.1064 -1.7609  2.5530
 4489SOL     OW13782   4.396   2.034   4.625 -0.0378 -0.6692 -0.3310
 4489SOL    HW113783   4.417   1.949   4.664  1.3519 -0.4918 -0.6323
 4489SOL    HW213784   4.451   2.039   4.546 -0.2152  0.4440 -0.4055
 4490SOL     OW13785   3.844   3.023   1.034  0.0447 -0.2323 -0.5664
 4490SOL    HW113786   3.883   2.945   0.994  0.4692  0.5025 -1.6582
 4490SOL    HW213787   3.825   2.997   1.124  1.1751 -1.2590 -0.5906
 4491SOL     OW13788   0.192   0.735   1.066  1.0027 -0.4095 -0.3923
 4491SOL    HW113789   0.107   0.699   1.040  1.3494 -0.5862 -1.3351
 4491SOL    HW213790   0.213   0.800   0.999  0.6854  1.1337  0.9516
 4492SOL     OW13791   3.449   3.595   2.310  0.1022 -0.3807  0.3244
 4492SOL    HW113792   3.432   3.602   2.404 -1.1602 -2.5443  0.3127
 4492SOL    HW213793   3.444   3.685   2.278  0.2857  0.3656  2.2733
 4493SOL     OW13794   4.227   0.451   3.439  0.3059  0.0950 -0.0414
 4493SOL    HW113795   4.173   0.396   3.382 -0.7385  0.5490  0.4782
 4493SOL    HW213796   4.313   0.408   3.439  0.7423  0.7589 -2.9352
 4494SOL     OW13797   5.038   2.766   3.333 -0.6509 -0.3643  0.4827
 4494SOL    HW113798   5.036   2.826   3.408  0.5042  1.0679 -0.5864
 4494SOL    HW213799   4.985   2.691   3.362  0.1760 -0.1028  2.9190
 4495SOL     OW13800   0.893   2.645   3.408 -0.0851  0.3299  0.1699
 4495SOL    HW113801   0.917   2.693   3.487  0.4670  0.7729 -0.2603
 4495SOL    HW213802   0.824   2.584   3.437 -0.2796  0.8673  0.8714
 4496SOL     OW13803   4.618   3.531   3.280 -0.6210 -0.0581  0.8578
 4496SOL    HW113804   4.598   3.480   3.359 -0.7696  0.3348  1.0758
 4496SOL    HW213805   4.558   3.605   3.284 -0.7015 -0.0932  0.3178
 4497SOL     OW13806   1.900   4.846   1.649 -0.4386 -0.3473 -0.0730
 4497SOL    HW113807   1.941   4.809   1.571  1.3160 -2.0225  1.5439
 4497SOL    HW213808   1.863   4.771   1.695 -2.1210  0.7018  0.3856
 4498SOL     OW13809   3.005   2.417   0.644  0.3724 -0.0781  0.2260
 4498SOL    HW113810   3.012   2.498   0.694 -0.2592 -1.4571  2.6975
 4498SOL    HW213811   2.915   2.417   0.612 -0.1831 -0.5893  1.7279
 4499SOL     OW13812   1.503   4.850   0.285 -0.4909 -0.3893 -0.1907
 4499SOL    HW113813   1.481   4.794   0.211 -1.2358 -0.5114  0.1106
 4499SOL    HW213814   1.524   4.788   0.356 -0.3860 -0.2777 -0.1236
 4500SOL     OW13815   3.824   2.205   3.499  0.3249  0.5676 -0.6613
 4500SOL    HW113816   3.822   2.116   3.464 -0.2474 -0.3050  1.4814
 4500SOL    HW213817   3.786   2.259   3.429  0.4343 -0.8784 -1.8849
 4501SOL     OW13818   3.276   3.127   5.291 -0.5624 -0.3536  0.0849
 4501SOL    HW113819   3.311   3.107   5.378  0.1052 -1.1417 -0.3521
 4501SOL    HW213820   3.268   3.223   5.290 -0.2996 -0.3144  0.9004
 4502SOL     OW13821   0.917   4.555   1.135 -0.1891 -0.5535  0.2953
 4502SOL    HW113822   0.978   4.587   1.202 -1.7374 -1.5307  2.2774
 4502SOL    HW213823   0.974   4.519   1.066  1.4706  1.2531  0.6428
 4503SOL     OW13824   3.780   3.339   4.779  0.1749  0.7571  0.1371
 4503SOL    HW113825   3.752   3.403   4.845 -0.2119  0.7327  0.0025
 4503SOL    HW213826   3.853   3.293   4.820  0.4859  1.3121  0.2186
 4504SOL     OW13827   5.351   1.882   2.354  0.3585 -0.3459  0.2460
 4504SOL    HW113828   5.365   1.875   2.260 -1.5098  0.5608 -0.1518
 4504SOL    HW213829   5.434   1.856   2.393  1.0891 -0.9813 -1.6363
 4505SOL     OW13830   5.416   5.183   1.385  0.6221 -0.4193 -0.5818
 4505SOL    HW113831   5.372   5.263   1.412  0.1916 -0.3823 -1.3605
 4505SOL    HW213832   5.503   5.189   1.424  0.7764  0.6819 -1.0596
 4506SOL     OW13833   0.212   1.607   2.548  0.2898  0.7727  0.1773
 4506SOL    HW113834   0.289   1.663   2.560 -1.7932  3.7417  0.7017
 4506SOL    HW213835   0.159   1.622   2.626 -1.5065 -0.0386 -0.8271
 4507SOL     OW13836   1.594   1.635   0.562 -0.3722 -0.5813  0.0906
 4507SOL    HW113837   1.667   1.576   0.544 -0.2849 -0.7411  0.9229
 4507SOL    HW213838   1.588   1.691   0.485 -0.2965 -1.5128 -0.6051
 4508SOL     OW13839   3.200   0.085   3.342  0.3213 -0.1667  0.3041
 4508SOL    HW113840   3.279   0.037   3.366 -0.2019 -0.3879  1.6893
 4508SOL    HW213841   3.170   0.125   3.424 -1.3612 -0.6260 -0.0405
 4509SOL     OW13842   2.422   2.045   5.493  0.4015  0.1671 -0.3823
 4509SOL    HW113843   2.372   1.996   5.557 -0.7072 -0.3793 -1.6146
 4509SOL    HW213844   2.457   2.120   5.541  0.6097 -0.8488  1.1001
 4510SOL     OW13845   1.837   2.955   5.432 -0.1537  0.0174  0.2918
 4510SOL    HW113846   1.898   2.990   5.367  0.5635 -0.5243  0.6590
 4510SOL    HW213847   1.862   2.863   5.441 -0.9935 -0.1949  0.4936
 4511SOL     OW13848   4.588   2.031   4.377 -0.1247 -0.1226  0.1583
 4511SOL    HW113849   4.588   2.044   4.282 -0.5221  0.3095  0.2140
 4511SOL    HW213850   4.657   2.088   4.409 -0.2174 -0.0124  0.1618
 4512SOL     OW13851   4.947   4.846   4.508  0.7875 -0.1918 -0.5387
 4512SOL    HW113852   4.923   4.939   4.512  0.6509 -0.2058 -0.9606
 4512SOL    HW213853   5.031   4.846   4.463 -0.2569 -0.4313 -2.5961
 4513SOL     OW13854   5.130   3.076   2.109 -0.5505  0.4319 -0.3186
 4513SOL    HW113855   5.152   2.985   2.130 -1.6258  0.2521  0.1175
 4513SOL    HW213856   5.121   3.118   2.194  1.7610  1.4530 -0.5080
 4514SOL     OW13857   4.387   0.217   1.834  0.5402 -0.3593 -0.1142
 4514SOL    HW113858   4.430   0.302   1.840  1.5386 -0.8689  0.1044
 4514SOL    HW213859   4.396   0.179   1.921  0.2378 -0.7592 -0.2531
 4515SOL     OW13860   4.905   1.497   4.755  0.4562  0.5313  0.1628
 4515SOL    HW113861   4.925   1.524   4.845  0.8515  2.5582 -0.4975
 4515SOL    HW213862   4.912   1.577   4.703 -0.1362 -0.5228 -1.6361
 4516SOL     OW13863   0.689   2.205   4.787  0.2883 -0.2902 -0.0962
 4516SOL    HW113864   0.725   2.140   4.728  0.4697  0.5791 -0.9647
 4516SOL    HW213865   0.620   2.248   4.737  0.4624  0.4820  0.3112
 4517SOL     OW13866   4.975   3.271   1.621  0.1683 -0.1377  0.0534
 4517SOL    HW113867   4.922   3.198   1.653 -1.0834  0.3997 -0.7076
 4517SOL    HW213868   4.996   3.247   1.531  1.4060 -0.4253  0.4039
 4518SOL     OW13869   4.241   2.386   2.166 -0.2963 -0.3437  0.7258
 4518SOL    HW113870   4.246   2.359   2.074 -0.8003 -0.3581  0.6984
 4518SOL    HW213871   4.332   2.392   2.194 -0.0910  0.6247 -0.0589
 4519SOL     OW13872   0.775   1.260   4.364 -0.1887 -0.2443 -0.1043
 4519SOL    HW113873   0.845   1.246   4.428 -0.7082  0.9826  0.7747
 4519SOL    HW213874   0.819   1.258   4.279  0.9496  0.5711  0.4355
 4520SOL     OW13875   3.440   3.151   5.499 -0.2239 -0.2858 -0.1495
 4520SOL    HW113876   3.405   3.204   5.571  1.2507 -0.5082  0.7872
 4520SOL    HW213877   3.515   3.202   5.467 -1.2479  0.1269 -2.0102
 4521SOL     OW13878   4.926   1.963   2.623 -0.1749 -0.2971  0.4242
 4521SOL    HW113879   5.015   1.928   2.625 -0.1027 -0.1055  0.6423
 4521SOL    HW213880   4.909   1.980   2.531  0.7708  1.5768  0.5580
 4522SOL     OW13881   5.137   1.630   1.206 -0.6704  0.5879 -0.5454
 4522SOL    HW113882   5.168   1.540   1.195 -0.5070  0.7210 -1.2321
 4522SOL    HW213883   5.062   1.637   1.147 -0.9871  0.7601 -0.1252
 4523SOL     OW13884   1.478   3.229   3.204  0.2210 -0.4116  0.3972
 4523SOL    HW113885   1.471   3.159   3.269  1.5375 -0.5412  0.4245
 4523SOL    HW213886   1.395   3.224   3.155  0.7135 -2.7513 -0.3535
 4524SOL     OW13887   3.594   2.314   0.457 -0.1892  0.4539  0.2798
 4524SOL    HW113888   3.683   2.334   0.485  1.8169 -1.4808 -3.9081
 4524SOL    HW213889   3.584   2.220   0.471 -1.5939  0.6174  0.5743
 4525SOL     OW13890   2.218   2.867   2.251 -0.0446 -0.0917  0.4827
 4525SOL    HW113891   2.160   2.889   2.177  0.8538  0.0248 -0.1990
 4525SOL    HW213892   2.270   2.793   2.219  2.3349  1.7109 -0.0869
 4526SOL     OW13893   4.830   4.805   2.568 -0.5223 -0.1487  0.1379
 4526SOL    HW113894   4.906   4.760   2.606 -0.5464 -0.9234 -0.6865
 4526SOL    HW213895   4.770   4.734   2.544 -1.3255  0.4342  0.3937
 4527SOL     OW13896   1.362   1.969   5.534  0.0822  0.1890  0.0989
 4527SOL    HW113897   1.383   2.038   5.597  1.8109  0.1981 -0.4432
 4527SOL    HW213898   1.332   2.015   5.456 -0.1317  0.2556  0.2185
 4528SOL     OW13899   4.064   3.305   0.812 -0.2582  0.0918 -0.1733
 4528SOL    HW113900   3.972   3.294   0.836 -0.4539 -3.6427 -1.9623
 4528SOL    HW213901   4.065   3.294   0.717  2.1996 -1.9786  0.0069
 4529SOL     OW13902   3.611   4.877   5.507  0.1009 -0.5027 -0.0235
 4529SOL    HW113903   3.576   4.859   5.420  2.5725  1.0769 -1.4831
 4529SOL    HW213904   3.602   4.795   5.554 -5.2845 -0.3121 -0.1433
 4530SOL     OW13905   1.456   4.363   2.570 -0.1793  0.5694 -0.1242
 4530SOL    HW113906   1.454   4.269   2.557  1.3021  0.7213 -1.8255
 4530SOL    HW213907   1.473   4.400   2.483  0.7300  2.3096  0.7201
 4531SOL     OW13908   5.554   3.794   1.075 -0.5554  0.0863 -0.4487
 4531SOL    HW113909   5.488   3.726   1.089 -0.4212 -0.2352 -1.2786
 4531SOL    HW213910   5.567   3.794   0.980  1.2759 -0.4638 -0.2224
 4532SOL     OW13911   3.286   1.800   3.409  0.3501  0.4553 -0.3069
 4532SOL    HW113912   3.308   1.712   3.441 -1.0234 -0.4590 -1.7223
 4532SOL    HW213913   3.225   1.784   3.337  0.6847  2.5568 -1.1133
 4533SOL     OW13914   0.196   1.638   3.782 -0.4026 -0.4142  0.0628
 4533SOL    HW113915   0.141   1.626   3.859  0.7555  0.1234  0.9895
 4533SOL    HW213916   0.234   1.551   3.766 -1.2670 -0.7190 -0.4099
 4534SOL     OW13917   1.056   2.752   3.633 -0.8295  0.1669  0.0476
 4534SOL    HW113918   1.142   2.782   3.604 -0.8352 -0.2903 -0.4571
 4534SOL    HW213919   1.074   2.696   3.709 -0.7762  0.9551  0.6331
 4535SOL     OW13920   4.694   2.260   1.244 -0.5432  0.2255 -0.0956
 4535SOL    HW113921   4.658   2.236   1.330 -0.9146 -0.4198 -0.4191
 4535SOL    HW213922   4.776   2.305   1.264 -0.1397 -0.7660  0.5765
 4536SOL     OW13923   0.275   3.864   2.989  0.1129  0.3602  0.1633
 4536SOL    HW113924   0.313   3.824   3.068  0.3140  0.1690 -0.0276
 4536SOL    HW213925   0.284   3.958   3.004  0.1582  0.3247  0.3675
 4537SOL     OW13926   5.069   3.012   0.465  0.6355 -0.2615  0.1691
 4537SOL    HW113927   5.008   3.066   0.515  0.5411  0.6415 -0.8829
 4537SOL    HW213928   5.039   3.019   0.374  1.3007 -1.1797 -0.1388
 4538SOL     OW13929   5.044   1.899   1.420 -0.6542 -0.3492  0.1216
 4538SOL    HW113930   5.015   1.915   1.330 -1.4200 -0.7216  0.2914
 4538SOL    HW213931   4.964   1.908   1.472 -0.1243  0.3509  0.8288
 4539SOL     OW13932   4.319   2.227   0.509  0.3786  0.4597 -0.1988
 4539SOL    HW113933   4.279   2.299   0.558  1.6028  0.7367  0.4474
 4539SOL    HW213934   4.400   2.264   0.475  1.1450 -0.6669  0.3411
 4540SOL     OW13935   4.251   2.438   5.030  0.7104 -0.7476  0.2245
 4540SOL    HW113936   4.301   2.477   5.101  0.2862  0.1201  0.0554
 4540SOL    HW213937   4.278   2.346   5.029 -0.3049 -1.1191  2.3906
 4541SOL     OW13938   2.472   3.043   2.234  0.4302 -0.1523  0.3967
 4541SOL    HW113939   2.430   3.080   2.156 -3.2732 -0.6044  1.9690
 4541SOL    HW213940   2.502   3.119   2.283 -0.5082  0.3624  0.2005
 4542SOL     OW13941   3.371   3.282   0.169  0.4937  0.2252 -0.3224
 4542SOL    HW113942   3.367   3.208   0.230  3.9398 -0.1740 -0.4173
 4542SOL    HW213943   3.339   3.356   0.219  0.6741 -0.6048  1.0878
 4543SOL     OW13944   4.824   0.332   1.892  0.0566 -0.3432  0.0939
 4543SOL    HW113945   4.894   0.298   1.836 -0.2020  0.5806 -0.8332
 4543SOL    HW213946   4.804   0.261   1.952 -0.0080 -1.5856 -1.3434
 4544SOL     OW13947   2.329   2.359   1.542  0.2583 -0.2637 -0.5526
 4544SOL    HW113948   2.305   2.304   1.617  0.5950 -2.2168 -1.7942
 4544SOL    HW213949   2.371   2.436   1.581 -3.6178  1.1104  1.5030
 4545SOL     OW13950   1.039   4.109   4.946  0.3229 -0.2492 -0.2645
 4545SOL    HW113951   1.021   4.086   5.037 -0.0010 -0.1940 -0.3136
 4545SOL    HW213952   1.056   4.025   4.903 -1.1489 -0.4479 -0.5085
 4546SOL     OW13953   3.425   1.633   0.920 -0.0949 -0.0172  0.4288
 4546SOL    HW113954   3.472   1.698   0.972  0.2928 -0.8103  1.0883
 4546SOL    HW213955   3.482   1.617   0.845  0.0433  0.0263  0.5239
 4547SOL     OW13956   2.223   0.397   0.655 -0.5877 -0.5673 -0.5508
 4547SOL    HW113957   2.312   0.373   0.681 -0.3359  0.1364 -0.7355
 4547SOL    HW213958   2.232   0.429   0.565 -1.1899 -1.4454 -0.9318
 4548SOL     OW13959   3.434   3.818   1.830  0.1250  0.3109  0.4676
 4548SOL    HW113960   3.505   3.834   1.768  0.1474  0.5740  0.5579
 4548SOL    HW213961   3.366   3.881   1.804  0.2691  0.6541  0.9249
 4549SOL     OW13962   5.257   1.553   2.509 -0.1045  0.9049 -0.4104
 4549SOL    HW113963   5.170   1.513   2.512  0.7846 -1.0719  0.2752
 4549SOL    HW213964   5.272   1.570   2.416  0.0820 -1.8492 -0.9593
 4550SOL     OW13965   4.434   2.602   3.428  0.5041 -0.2851 -0.0903
 4550SOL    HW113966   4.400   2.519   3.393  0.1401  0.4451 -1.5397
 4550SOL    HW213967   4.360   2.638   3.477 -0.8208  1.0679 -2.8382
 4551SOL     OW13968   4.580   1.439   1.849 -0.8214 -0.3388  0.1115
 4551SOL    HW113969   4.590   1.411   1.940 -1.4742 -1.9288 -0.2637
 4551SOL    HW213970   4.486   1.433   1.832 -0.7586  0.3917 -0.5425
 4552SOL     OW13971   3.407   1.989   2.349 -0.4568  0.2058 -0.3074
 4552SOL    HW113972   3.337   2.050   2.327  0.7118  1.7224  0.0318
 4552SOL    HW213973   3.479   2.011   2.289  0.6015  0.3364  0.9596
 4553SOL     OW13974   5.464   4.295   5.027  0.5782 -0.5578  0.0163
 4553SOL    HW113975   5.432   4.349   4.954 -0.3538 -0.6781  0.3322
 4553SOL    HW213976   5.455   4.205   4.996 -0.2344 -0.6292  0.4336
 4554SOL     OW13977   3.683   0.126   0.484 -0.9160  0.2520  0.3251
 4554SOL    HW113978   3.636   0.046   0.461  0.4490 -0.3326 -0.5928
 4554SOL    HW213979   3.615   0.187   0.510 -2.0520 -0.9979  0.4082
 4555SOL     OW13980   3.666   3.313   2.032 -0.4245  0.3854  0.3107
 4555SOL    HW113981   3.685   3.377   1.964  2.9186 -0.5142  0.2725
 4555SOL    HW213982   3.665   3.364   2.113 -0.8272  0.8923 -0.0043
 4556SOL     OW13983   4.919   3.251   0.654 -0.3218 -0.6722 -0.1648
 4556SOL    HW113984   4.918   3.295   0.739  0.9274 -1.1370  0.1131
 4556SOL    HW213985   4.860   3.177   0.665 -1.4723  0.1978 -0.2505
 4557SOL     OW13986   4.700   5.152   1.073 -0.5458  0.4309 -0.5091
 4557SOL    HW113987   4.676   5.101   1.151  0.9431  1.1121  0.4535
 4557SOL    HW213988   4.672   5.241   1.093 -0.6013  0.5146 -0.9668
 4558SOL     OW13989   1.440   4.229   5.243 -0.5426  0.0287  0.6598
 4558SOL    HW113990   1.367   4.222   5.181  1.4121  1.2556 -1.9811
 4558SOL    HW213991   1.490   4.148   5.230 -0.1708  0.2561  0.6399
 4559SOL     OW13992   1.885   0.319   4.427  0.1923  0.2872  0.3719
 4559SOL    HW113993   1.898   0.373   4.505  1.9680  0.1185  0.2339
 4559SOL    HW213994   1.973   0.296   4.399 -0.4819 -2.2863  0.1359
 4560SOL     OW13995   0.940   5.428   4.152  0.6932  0.7319  0.8830
 4560SOL    HW113996   0.934   5.503   4.093 -0.7919  0.9178  1.2263
 4560SOL    HW213997   0.849   5.411   4.178  1.0051 -1.1968  0.8134
 4561SOL     OW13998   2.560   4.839   1.731 -0.2276  0.0806  0.2740
 4561SOL    HW113999   2.616   4.761   1.739  0.3696  0.0019 -2.9913
 4561SOL    HW214000   2.506   4.838   1.809 -0.3259 -3.7021  0.3505
 4562SOL     OW14001   1.550   3.699   0.175  0.3476  0.3600 -0.4488
 4562SOL    HW114002   1.534   3.714   0.268  0.8764  2.1594 -0.6094
 4562SOL    HW214003   1.605   3.772   0.148  0.4844 -0.3103 -2.1123
 4563SOL     OW14004   1.628   2.528   4.503 -0.4240  0.2647  0.0280
 4563SOL    HW114005   1.692   2.459   4.486 -0.8937 -0.1386 -0.1352
 4563SOL    HW214006   1.597   2.511   4.592 -0.4109  0.3662  0.0515
 4564SOL     OW14007   4.341   3.950   0.730 -0.0286  0.0308 -0.3586
 4564SOL    HW114008   4.384   4.016   0.785  3.4233 -2.9638  1.0035
 4564SOL    HW214009   4.391   3.952   0.648  0.4499 -1.1011 -0.1178
 4565SOL     OW14010   0.994   0.326   0.756  0.1939 -0.2685 -0.0649
 4565SOL    HW114011   0.973   0.255   0.817 -1.1251  0.2658  0.1324
 4565SOL    HW214012   1.042   0.283   0.685  1.3635 -0.9827  1.1114
 4566SOL     OW14013   4.459   2.485   2.306 -1.0224  0.3415  0.2968
 4566SOL    HW114014   4.443   2.487   2.400 -1.6891  1.3157  0.1846
 4566SOL    HW214015   4.485   2.575   2.284  0.7573 -0.2415 -0.2048
 4567SOL     OW14016   1.297   4.906   2.157 -0.6103  0.5859  0.1049
 4567SOL    HW114017   1.218   4.853   2.157 -0.1672 -0.1341 -1.6486
 4567SOL    HW214018   1.345   4.878   2.235 -2.3901  1.5840  1.6271
 4568SOL     OW14019   1.549   3.974   3.134 -0.4725 -0.1418  0.0496
 4568SOL    HW114020   1.626   4.031   3.142 -0.2149 -0.3103 -1.0291
 4568SOL    HW214021   1.576   3.906   3.072 -1.5338 -0.1171 -0.4661
 4569SOL     OW14022   4.328   3.381   1.225 -0.5162 -0.0398 -0.3050
 4569SOL    HW114023   4.254   3.370   1.164 -1.7096  3.4823  0.2966
 4569SOL    HW214024   4.315   3.311   1.289 -1.9483 -0.9561 -1.4917
 4570SOL     OW14025   4.665   0.912   1.336  0.1973  0.7335  0.0884
 4570SOL    HW114026   4.716   0.849   1.287 -1.0795 -2.7099  2.7394
 4570SOL    HW214027   4.592   0.935   1.279  1.1779  0.5205 -1.2744
 4571SOL     OW14028   3.890   3.820   2.471 -0.2537 -0.3348 -0.0294
 4571SOL    HW114029   3.920   3.879   2.402 -0.0039 -0.5633 -0.1134
 4571SOL    HW214030   3.852   3.746   2.425  0.7962 -0.9477  0.0713
 4572SOL     OW14031   0.264   1.752   0.540 -0.4599 -0.0014 -0.3114
 4572SOL    HW114032   0.287   1.664   0.510  0.4253  0.0847  0.0866
 4572SOL    HW214033   0.274   1.807   0.463 -0.4504 -0.1508 -0.4168
 4573SOL     OW14034   5.441   4.366   0.385 -0.4017  0.8138 -0.8463
 4573SOL    HW114035   5.475   4.331   0.467  2.3295  3.0777 -0.8342
 4573SOL    HW214036   5.463   4.300   0.319 -0.3605  0.0757 -0.1092
 4574SOL     OW14037   4.024   1.697   1.299 -0.9384 -0.0938  0.4419
 4574SOL    HW114038   4.048   1.645   1.376 -0.5824  0.9019  1.0219
 4574SOL    HW214039   4.069   1.654   1.226  0.2996  0.0756  1.0864
 4575SOL     OW14040   1.916   1.593   4.753 -0.1216  0.1100 -0.0908
 4575SOL    HW114041   1.952   1.667   4.803  2.6812  0.4926 -2.4319
 4575SOL    HW214042   1.872   1.634   4.678  1.8633 -0.4973 -1.6653
 4576SOL     OW14043   3.052   0.872   4.233 -0.0051 -0.7133 -0.1404
 4576SOL    HW114044   3.038   0.842   4.143  1.0721 -0.5932 -0.3548
 4576SOL    HW214045   3.040   0.793   4.286 -2.5393 -0.4486 -0.1589
 4577SOL     OW14046   2.013   1.338   2.712  0.1060 -0.6726  0.0006
 4577SOL    HW114047   2.083   1.336   2.646 -0.0884 -1.0512 -0.1967
 4577SOL    HW214048   2.047   1.284   2.784  0.7304  0.5283  0.6406
 4578SOL     OW14049   0.011   0.163   2.238  1.1027  0.0130 -0.1897
 4578SOL    HW114050  -0.018   0.101   2.305  0.4600  1.4333  0.9015
 4578SOL    HW214051  -0.066   0.217   2.220  1.4316  0.0326 -1.6795
 4579SOL     OW14052   3.640   3.945   1.678 -0.0148  0.3152  0.0523
 4579SOL    HW114053   3.701   3.955   1.605  1.0277 -0.9234  0.7296
 4579SOL    HW214054   3.686   3.979   1.754 -1.0172  1.3964  0.2098
 4580SOL     OW14055   2.760   1.176   2.267 -0.2928 -0.3089 -0.3451
 4580SOL    HW114056   2.829   1.165   2.202 -0.9862 -2.3342 -0.8226
 4580SOL    HW214057   2.799   1.143   2.348  0.2025  1.1970  0.0669
 4581SOL     OW14058   5.301   0.811   2.749  0.3580 -0.5596 -0.1914
 4581SOL    HW114059   5.333   0.753   2.818  1.1210  0.6776  0.5505
 4581SOL    HW214060   5.229   0.860   2.791 -0.2299 -0.9052 -0.7803
 4582SOL     OW14061   1.875   3.909   3.808 -0.5156 -0.0964  0.3092
 4582SOL    HW114062   1.797   3.900   3.862 -0.5486 -0.3888  0.2152
 4582SOL    HW214063   1.849   3.874   3.723  0.3917 -2.3659  0.9125
 4583SOL     OW14064   0.403   2.735   2.740 -0.4867 -0.1288 -0.1264
 4583SOL    HW114065   0.458   2.774   2.671 -1.8297 -1.0995 -1.8375
 4583SOL    HW214066   0.313   2.752   2.711 -1.1654  1.0476  2.3832
 4584SOL     OW14067   0.780   2.832   2.766 -0.2911 -0.1809  0.0677
 4584SOL    HW114068   0.734   2.899   2.817 -0.6603  0.3720 -0.9644
 4584SOL    HW214069   0.845   2.796   2.827 -2.4483 -1.4279  1.7750
 4585SOL     OW14070   2.946   1.921   1.700 -0.7502 -0.2373  0.4753
 4585SOL    HW114071   2.953   1.862   1.625 -0.2340 -1.2370  1.2886
 4585SOL    HW214072   2.918   2.004   1.662  0.0104 -0.5709 -0.9022
 4586SOL     OW14073   0.374   4.761   3.214  0.0896 -0.2656 -0.1550
 4586SOL    HW114074   0.278   4.762   3.211 -0.0274 -1.6028  1.7127
 4586SOL    HW214075   0.398   4.846   3.251 -0.3153  0.2811 -1.1013
 4587SOL     OW14076   5.071   0.055   3.684 -0.2476  0.2365  0.1374
 4587SOL    HW114077   5.069   0.035   3.778 -0.4891  2.8766  0.7850
 4587SOL    HW214078   5.160   0.086   3.668  0.4210 -2.0801 -1.0322
 4588SOL     OW14079   0.874   4.215   4.459  0.1877  0.1575  0.2933
 4588SOL    HW114080   0.873   4.137   4.514  0.9330 -0.3695 -0.4153
 4588SOL    HW214081   0.870   4.288   4.521  3.5831 -0.3423  1.2609
 4589SOL     OW14082   4.941   1.894   0.380 -0.1581  0.1031  0.8384
 4589SOL    HW114083   4.881   1.899   0.454 -0.6415 -1.0164  0.5389
 4589SOL    HW214084   4.915   1.814   0.333 -0.2065  1.0536 -0.8288
 4590SOL     OW14085   2.091   3.844   5.194  0.2145  0.2356 -0.0012
 4590SOL    HW114086   2.165   3.886   5.150 -0.6665  0.6854 -1.0981
 4590SOL    HW214087   2.115   3.844   5.286  1.0401  1.5300 -0.1862
 4591SOL     OW14088   3.994   0.895   0.604  0.1721  0.3123 -0.6224
 4591SOL    HW114089   4.014   0.839   0.680  0.0455 -0.1998 -0.9628
 4591SOL    HW214090   3.949   0.837   0.543 -0.6812  0.9858 -0.6498
 4592SOL     OW14091   5.220   1.441   4.611 -0.1075  0.3275  0.4069
 4592SOL    HW114092   5.256   1.507   4.551  0.9122  0.0392  0.6748
 4592SOL    HW214093   5.228   1.358   4.564  0.4158  0.1412  0.8118
 4593SOL     OW14094   1.765   3.212   4.130 -0.0620  0.0617 -0.2142
 4593SOL    HW114095   1.776   3.302   4.161 -0.8687 -0.5578  1.9921
 4593SOL    HW214096   1.675   3.208   4.100 -0.2303 -0.1831  0.3180
 4594SOL     OW14097   5.228   1.094   1.713 -0.2029  0.0719 -0.3904
 4594SOL    HW114098   5.201   1.010   1.674  0.3433 -0.7185  0.8476
 4594SOL    HW214099   5.147   1.143   1.724 -0.6581 -0.6911 -0.2629
 4595SOL     OW14100   4.934   2.588   4.490  0.0478 -0.2168  0.6760
 4595SOL    HW114101   4.958   2.535   4.414  0.9134  0.5203  0.4253
 4595SOL    HW214102   4.935   2.527   4.563  2.5942 -0.2717  0.6600
 4596SOL     OW14103   2.208   5.198   5.519  0.3390  0.1532  0.0813
 4596SOL    HW114104   2.160   5.258   5.576 -1.3590 -1.0700  0.0365
 4596SOL    HW214105   2.168   5.209   5.433  0.8942 -0.0958 -0.2136
 4597SOL     OW14106   4.411   0.748   5.384 -0.0125 -0.8125 -0.2421
 4597SOL    HW114107   4.503   0.723   5.395  0.2282 -0.4841 -1.3907
 4597SOL    HW214108   4.379   0.759   5.473  0.7106 -2.1675  0.2294
 4598SOL     OW14109   0.535   0.480   2.866 -0.2379  0.1500 -0.0413
 4598SOL    HW114110   0.566   0.547   2.927 -1.6367  2.7668 -1.9809
 4598SOL    HW214111   0.614   0.431   2.842  1.3702  2.6605 -0.2825
 4599SOL     OW14112   2.749   2.763   1.045 -0.2997 -0.3367 -0.1051
 4599SOL    HW114113   2.832   2.806   1.068 -0.1772 -1.2968  1.3447
 4599SOL    HW214114   2.715   2.730   1.128 -2.3375  0.3393 -0.6130
 4600SOL     OW14115   4.494   0.567   3.083  0.1157  0.3086  0.2129
 4600SOL    HW114116   4.407   0.538   3.055 -0.3629  1.1338  0.7863
 4600SOL    HW214117   4.503   0.655   3.048  0.7326  0.2208  0.1419
 4601SOL     OW14118   3.062   3.841   0.651 -0.1342 -0.2756 -0.3564
 4601SOL    HW114119   3.031   3.779   0.585  0.0058 -0.4680 -0.2415
 4601SOL    HW214120   3.100   3.913   0.600  0.9223 -0.9008 -0.4906
 4602SOL     OW14121   2.086   5.259   5.295 -0.0279 -0.3490  0.1437
 4602SOL    HW114122   2.115   5.234   5.207  2.2029  0.4281  0.5857
 4602SOL    HW214123   2.068   5.353   5.288 -1.6484 -0.6446  0.1090
 4603SOL     OW14124   1.525   0.729   2.037 -0.1219 -0.3130  0.5432
 4603SOL    HW114125   1.556   0.788   1.968  2.3098 -0.7036  1.2103
 4603SOL    HW214126   1.487   0.655   1.989  0.2824  0.0450 -0.3555
 4604SOL     OW14127   2.852   4.006   3.774 -0.1114 -0.5580 -0.3665
 4604SOL    HW114128   2.839   4.062   3.698 -1.5131 -1.7781 -1.0596
 4604SOL    HW214129   2.824   3.919   3.745  0.2642 -1.2482  1.2444
 4605SOL     OW14130   3.519   3.778   4.156 -0.5073 -0.3106  0.0340
 4605SOL    HW114131   3.556   3.692   4.137 -0.6068 -1.0084  2.6254
 4605SOL    HW214132   3.494   3.813   4.071 -0.4778 -2.8422 -1.0985
 4606SOL     OW14133   4.193   3.939   1.230  0.3112 -0.2337  0.1813
 4606SOL    HW114134   4.190   3.844   1.240 -2.2590 -0.2885 -0.6247
 4606SOL    HW214135   4.127   3.960   1.164 -0.6861  2.2759  1.7965
 4607SOL     OW14136   0.510   2.363   5.365  0.0147 -0.3243  0.4560
 4607SOL    HW114137   0.434   2.329   5.413 -0.9319  1.1143  0.0649
 4607SOL    HW214138   0.583   2.354   5.426 -0.6676 -0.8379  1.2136
 4608SOL     OW14139   0.782   3.207   1.185  0.2655 -0.4791 -0.6480
 4608SOL    HW114140   0.794   3.232   1.093  0.3468 -1.0523 -0.7955
 4608SOL    HW214141   0.791   3.290   1.233  0.0352 -0.1454 -1.1693
 4609SOL     OW14142   0.980   5.022   3.082 -0.2252 -0.3888 -0.4441
 4609SOL    HW114143   0.944   4.946   3.130  0.0105 -0.3722 -0.2383
 4609SOL    HW214144   0.999   4.988   2.995  0.5478 -0.7540 -0.1372
 4610SOL     OW14145   1.938   2.953   5.157 -0.7955 -0.0101 -0.1778
 4610SOL    HW114146   1.974   2.955   5.069  0.0563  2.3487  0.1647
 4610SOL    HW214147   2.010   2.923   5.212 -0.1511  2.0126  0.1434
 4611SOL     OW14148   1.667   3.750   2.218 -0.2314 -0.0108 -0.9138
 4611SOL    HW114149   1.749   3.701   2.223 -0.1617 -0.1397 -2.7533
 4611SOL    HW214150   1.692   3.837   2.189 -0.7294 -0.0531 -1.5032
 4612SOL     OW14151   4.889   3.588   0.709 -0.3458  0.1360 -0.4553
 4612SOL    HW114152   4.854   3.501   0.728 -2.3298  0.9753  0.0081
 4612SOL    HW214153   4.840   3.646   0.767  0.8396  1.5899 -0.8567
 4613SOL     OW14154   3.423   2.157   4.050 -0.7355 -0.0552  0.0296
 4613SOL    HW114155   3.337   2.188   4.078 -1.2363 -0.1859 -1.3154
 4613SOL    HW214156   3.411   2.064   4.034 -0.2966 -0.1114  0.0256
 4614SOL     OW14157   1.341   3.262   0.686  0.1731 -0.9498 -0.0239
 4614SOL    HW114158   1.386   3.277   0.603 -0.9558 -0.4025 -0.5636
 4614SOL    HW214159   1.301   3.176   0.677 -0.5936 -0.5724 -0.3790
 4615SOL     OW14160   2.743   1.513   0.658  0.1164  0.4779 -0.0367
 4615SOL    HW114161   2.835   1.498   0.680  0.3310  0.5320 -0.8575
 4615SOL    HW214162   2.733   1.608   0.662  0.2997  0.5271 -0.7173
 4616SOL     OW14163   5.283   2.217   2.203 -0.1719  0.2300  0.3890
 4616SOL    HW114164   5.344   2.200   2.132  0.2937  0.4006  0.7431
 4616SOL    HW214165   5.199   2.182   2.172 -0.2533  1.3502 -0.7202
 4617SOL     OW14166   3.077   0.272   2.092 -0.4644  0.3570  0.5061
 4617SOL    HW114167   3.071   0.351   2.038 -1.9125 -0.3638 -0.4331
 4617SOL    HW214168   3.060   0.303   2.181  2.2966  1.6135  0.7181
 4618SOL     OW14169   5.192   0.287   4.645 -0.4916  0.4374 -0.4837
 4618SOL    HW114170   5.260   0.341   4.687  0.3848  1.2513 -2.7810
 4618SOL    HW214171   5.235   0.204   4.627 -0.4955  0.4937 -0.7630
 4619SOL     OW14172   4.150   0.595   1.851 -0.1872 -0.7870 -0.6566
 4619SOL    HW114173   4.082   0.655   1.821  2.5852  2.7094 -0.5325
 4619SOL    HW214174   4.167   0.538   1.775 -2.3058 -0.9280 -1.0753
 4620SOL     OW14175   5.029   1.650   2.037 -0.7565  0.0371 -1.2335
 4620SOL    HW114176   4.934   1.642   2.042 -0.6134 -1.2553  0.2813
 4620SOL    HW214177   5.050   1.722   2.097 -0.8491  1.3939 -2.7528
 4621SOL     OW14178   3.753   4.324   0.873 -0.2874  0.2643 -0.2986
 4621SOL    HW114179   3.840   4.361   0.887  0.0749 -0.4365 -0.6645
 4621SOL    HW214180   3.720   4.305   0.961 -0.2187  0.8422 -0.1418
 4622SOL     OW14181   1.847   3.165   1.000 -0.3468 -0.8602  0.3451
 4622SOL    HW114182   1.835   3.080   0.957 -0.1772 -1.2395  1.0474
 4622SOL    HW214183   1.859   3.145   1.092  1.6246 -0.2113  0.2782
 4623SOL     OW14184   5.336   0.281   1.700  0.0486  0.3073  0.0875
 4623SOL    HW114185   5.395   0.264   1.774  0.5053  1.0518 -0.1008
 4623SOL    HW214186   5.368   0.363   1.662 -2.1388  1.6660  1.0183
 4624SOL     OW14187   2.344   3.018   2.786 -0.9517  0.2748  0.0052
 4624SOL    HW114188   2.302   3.000   2.870 -1.6726  2.3187  0.1274
 4624SOL    HW214189   2.408   3.086   2.805  0.9010 -1.2137 -0.6161
 4625SOL     OW14190   0.193   2.839   4.344  0.4974  0.5641 -0.3294
 4625SOL    HW114191   0.250   2.804   4.276 -0.2514 -1.1801 -0.1127
 4625SOL    HW214192   0.251   2.855   4.418  0.5432 -3.3601  0.7184
 4626SOL     OW14193   4.786   1.367   2.289 -0.2909 -0.0547  0.2213
 4626SOL    HW114194   4.859   1.333   2.236 -0.5187 -2.2438  1.1859
 4626SOL    HW214195   4.725   1.403   2.225  0.8054  0.1617 -0.7459
 4627SOL     OW14196   2.678   1.677   1.758 -0.0797 -0.5570 -0.2216
 4627SOL    HW114197   2.720   1.695   1.674  1.0330 -0.2921  0.3707
 4627SOL    HW214198   2.686   1.759   1.807 -2.8940  0.0957 -0.7062
 4628SOL     OW14199   4.554   2.578   4.233  0.0407 -0.0187  0.4681
 4628SOL    HW114200   4.475   2.537   4.199  1.9125 -2.0741 -1.7362
 4628SOL    HW214201   4.594   2.512   4.290  2.0890 -0.6407 -1.5405
 4629SOL     OW14202   4.487   2.999   0.907 -0.1948 -0.5322 -0.1685
 4629SOL    HW114203   4.559   3.017   0.968  2.2326  0.2450 -3.0305
 4629SOL    HW214204   4.432   3.077   0.912 -0.3353 -0.6925  1.3414
 4630SOL     OW14205   1.394   0.061   3.248  0.2096 -0.3428  0.1501
 4630SOL    HW114206   1.324   0.084   3.309 -0.5933 -1.3124 -0.3631
 4630SOL    HW214207   1.462   0.126   3.263  0.2717 -0.8538  2.4519
 4631SOL     OW14208   2.207   3.764   2.566  0.4184 -0.0507 -0.0247
 4631SOL    HW114209   2.143   3.706   2.607  0.4367 -0.9976 -1.2993
 4631SOL    HW214210   2.292   3.723   2.585  0.5595  0.4537  0.4692
 4632SOL     OW14211   1.043   5.242   0.474 -0.1135  0.6765  0.1643
 4632SOL    HW114212   1.005   5.181   0.537  0.9671 -0.3469 -0.1355
 4632SOL    HW214213   1.137   5.237   0.490  0.1520  0.6400 -1.3125
 4633SOL     OW14214   5.530   5.509   2.433 -0.7686  0.5914 -0.0932
 4633SOL    HW114215   5.600   5.444   2.425 -0.5848  0.8185 -0.3530
 4633SOL    HW214216   5.524   5.526   2.527  0.4370  1.5446 -0.1612
 4634SOL     OW14217   3.464   1.195   4.492  0.0843 -0.0940  0.0662
 4634SOL    HW114218   3.466   1.245   4.410 -0.4613  3.2518  1.9279
 4634SOL    HW214219   3.400   1.127   4.476 -0.9343  1.2205 -1.9185
 4635SOL     OW14220   3.645   3.854   0.648  0.1895  0.4165  0.3658
 4635SOL    HW114221   3.551   3.858   0.663 -0.1446 -0.6734 -1.2274
 4635SOL    HW214222   3.664   3.926   0.588 -0.2515 -1.3650 -2.0227
 4636SOL     OW14223   0.724   4.403   4.035 -0.3576 -0.3220  0.2247
 4636SOL    HW114224   0.797   4.346   4.060  2.3798  2.0291 -1.7586
 4636SOL    HW214225   0.726   4.474   4.100  0.0879  0.4618 -0.6174
 4637SOL     OW14226   4.552   3.048   2.893 -0.1160 -0.2126  0.0568
 4637SOL    HW114227   4.513   2.960   2.891 -2.4701  0.7260  1.1405
 4637SOL    HW214228   4.597   3.051   2.978  0.3155 -0.4971 -0.1582
 4638SOL     OW14229   5.482   0.429   0.375 -0.0651  0.4789  0.9683
 4638SOL    HW114230   5.560   0.485   0.377  0.0288  0.8684 -3.5343
 4638SOL    HW214231   5.409   0.491   0.365 -0.6230 -0.0057  1.9799
 4639SOL     OW14232   3.540   5.421   3.280  0.0447 -0.3505  0.0048
 4639SOL    HW114233   3.572   5.331   3.289 -1.6638 -1.0103 -0.1872
 4639SOL    HW214234   3.471   5.415   3.214  0.3274  1.2272 -0.4670
 4640SOL     OW14235   5.323   4.032   4.036 -0.0978  0.1988 -0.4253
 4640SOL    HW114236   5.361   4.120   4.037 -0.4281  0.3383  0.4423
 4640SOL    HW214237   5.378   3.983   3.974 -0.7767  1.3883 -2.0521
 4641SOL     OW14238   4.790   4.800   1.723  0.2594 -0.4761  0.7276
 4641SOL    HW114239   4.798   4.764   1.811 -0.5285 -0.7901  0.6854
 4641SOL    HW214240   4.861   4.761   1.673  0.5652 -0.4768  1.1681
 4642SOL     OW14241   2.468   0.107   5.307 -0.3669  0.2929 -0.2701
 4642SOL    HW114242   2.414   0.168   5.258 -1.1130  0.6981  1.0182
 4642SOL    HW214243   2.490   0.039   5.243 -1.7196  0.5343 -1.0437
 4643SOL     OW14244   0.997   1.202   4.535  0.0468 -0.5587  0.0240
 4643SOL    HW114245   1.025   1.244   4.616  1.1355 -0.6420 -0.3003
 4643SOL    HW214246   1.070   1.146   4.510  0.1265  0.1924 -1.5284
 4644SOL     OW14247   2.395   2.750   3.712 -0.2029  0.7972  0.3616
 4644SOL    HW114248   2.447   2.827   3.689  0.9693 -0.2173 -0.6192
 4644SOL    HW214249   2.395   2.698   3.631 -0.0607 -0.6998  1.2939
 4645SOL     OW14250   1.287   1.389   5.543 -0.7436  0.8584 -0.3377
 4645SOL    HW114251   1.267   1.348   5.627  1.0406 -1.5286 -0.9542
 4645SOL    HW214252   1.331   1.470   5.565  0.9133 -0.3713  1.1008
 4646SOL     OW14253   4.964   1.768   0.022 -0.1550 -0.5210  0.2193
 4646SOL    HW114254   5.045   1.819   0.024  0.2372 -1.1449  0.5291
 4646SOL    HW214255   4.960   1.732  -0.066 -0.4544  0.0626 -0.0148
 4647SOL     OW14256   1.377   3.838   2.703  0.6447  0.0471  0.6333
 4647SOL    HW114257   1.349   3.777   2.771 -0.6235  1.1872  1.1884
 4647SOL    HW214258   1.467   3.812   2.682  0.0395 -2.1736  0.6104
 4648SOL     OW14259   3.254   3.077   3.930  0.2840  0.0813  0.2166
 4648SOL    HW114260   3.240   2.987   3.959  1.0229 -0.2728 -0.4988
 4648SOL    HW214261   3.296   3.120   4.004 -1.1226  0.1707  1.0042
 4649SOL     OW14262   3.387   0.772   5.491  0.1847 -0.6615 -0.6269
 4649SOL    HW114263   3.358   0.748   5.580  0.7439  2.0018  0.3693
 4649SOL    HW214264   3.469   0.820   5.505 -0.2147  0.6600 -2.4851
 4650SOL     OW14265   2.877   4.477   4.633 -0.1010 -0.5608 -0.0994
 4650SOL    HW114266   2.967   4.447   4.622  1.1742  2.0012  2.1867
 4650SOL    HW214267   2.827   4.427   4.569  3.2948 -0.3889 -3.1845
 4651SOL     OW14268   0.096   5.181   1.514  0.9542 -0.1129  0.1640
 4651SOL    HW114269   0.070   5.095   1.481  1.0044 -0.2791  0.5459
 4651SOL    HW214270   0.171   5.163   1.571 -0.4192 -0.1304  2.0634
 4652SOL     OW14271   3.970   0.441   3.899 -0.2950 -0.1683 -0.1583
 4652SOL    HW114272   3.936   0.425   3.811 -2.0505 -1.3529  0.6981
 4652SOL    HW214273   3.949   0.533   3.917 -0.3738 -0.0616 -0.7750
 4653SOL     OW14274   0.293   4.299   5.551  0.6268 -0.1075  0.1404
 4653SOL    HW114275   0.252   4.219   5.518  0.5144 -0.2603  0.6419
 4653SOL    HW214276   0.370   4.268   5.599  1.1673  0.1581 -0.5378
 4654SOL     OW14277   4.035   4.649   4.947  0.2069  0.2021  0.2561
 4654SOL    HW114278   3.988   4.733   4.950 -0.0119  0.0999 -0.2471
 4654SOL    HW214279   4.069   4.644   4.858 -0.3203 -0.5377  0.0894
 4655SOL     OW14280   4.208   5.099   3.561 -0.4132 -0.3213 -0.5012
 4655SOL    HW114281   4.138   5.133   3.505 -0.3550 -1.7200 -1.4903
 4655SOL    HW214282   4.287   5.144   3.531 -1.0400  2.6575  1.8375
 4656SOL     OW14283   2.799   0.504   1.665 -0.1254  0.0419  0.3665
 4656SOL    HW114284   2.839   0.417   1.675  1.0220  0.6127  0.9187
 4656SOL    HW214285   2.867   0.558   1.627 -1.2114  0.4520 -1.0934
 4657SOL     OW14286   3.097   4.120   1.072 -0.4720  0.1407 -0.3231
 4657SOL    HW114287   3.166   4.112   1.138  0.0701  0.2076 -0.8754
 4657SOL    HW214288   3.047   4.039   1.080 -0.2411  0.0247 -0.0194
 4658SOL     OW14289   1.702   2.070   3.071 -0.3605 -0.5922 -0.0626
 4658SOL    HW114290   1.696   2.001   3.138 -0.2365 -0.0701  0.5021
 4658SOL    HW214291   1.787   2.057   3.030 -0.7265 -1.3388 -0.5951
 4659SOL     OW14292   5.328   3.963   0.086  0.2596  0.4287  0.6970
 4659SOL    HW114293   5.326   3.914   0.168  3.1904 -2.0270 -0.5231
 4659SOL    HW214294   5.272   3.914   0.027  0.9236  0.1533  0.2809
 4660SOL     OW14295   0.388   1.318   5.102  0.4190  1.0410  0.1694
 4660SOL    HW114296   0.458   1.366   5.057  1.0516  1.3226  1.4040
 4660SOL    HW214297   0.310   1.337   5.051  1.1510  1.1412 -0.9499
 4661SOL     OW14298   1.908   2.028   4.978  0.7486  0.4141  0.4003
 4661SOL    HW114299   1.968   1.972   4.929 -0.3643 -1.3526  0.9153
 4661SOL    HW214300   1.888   1.977   5.057 -0.0754  1.7110  1.0580
 4662SOL     OW14301   0.716   1.745   2.695  0.5873  0.5446  0.5820
 4662SOL    HW114302   0.686   1.811   2.632 -0.8450 -1.3196 -0.8350
 4662SOL    HW214303   0.637   1.694   2.716  1.9959 -2.2513 -0.3611
 4663SOL     OW14304   5.448   2.674   3.830 -0.2033 -0.5238  0.1340
 4663SOL    HW114305   5.507   2.636   3.765  0.7349  1.4889 -0.2593
 4663SOL    HW214306   5.500   2.678   3.910 -0.6525 -1.0499  0.4561
 4664SOL     OW14307   2.035   0.283   3.805 -0.1790 -0.7699  0.3428
 4664SOL    HW114308   2.002   0.363   3.846 -0.3236 -0.0754 -1.0680
 4664SOL    HW214309   1.957   0.229   3.792 -0.5884  0.1737 -1.4724
 4665SOL     OW14310   0.921   5.218   5.394  0.0437 -0.7219 -0.6012
 4665SOL    HW114311   0.867   5.275   5.448  1.0764  0.5446 -0.8456
 4665SOL    HW214312   0.936   5.140   5.449  0.6263  0.2979  0.7392
 4666SOL     OW14313   2.750   3.507   0.418  0.3822 -0.4262  0.3023
 4666SOL    HW114314   2.700   3.431   0.389 -0.3352 -0.8990  2.5257
 4666SOL    HW214315   2.684   3.573   0.440  1.0192  1.3897 -2.7324
 4667SOL     OW14316   0.494   3.384   1.386  0.4709 -0.0624 -0.0274
 4667SOL    HW114317   0.407   3.366   1.349 -0.1193  2.5209 -0.0954
 4667SOL    HW214318   0.521   3.466   1.345  1.6746  0.7063  2.1279
 4668SOL     OW14319   2.311   4.629   2.620 -0.5858 -1.0382 -0.4108
 4668SOL    HW114320   2.337   4.646   2.711  0.9144  0.2828 -1.0337
 4668SOL    HW214321   2.222   4.663   2.614 -1.4944 -2.9669  1.0390
 4669SOL     OW14322   2.065   1.086   3.376  0.2989 -0.4995  0.3352
 4669SOL    HW114323   2.088   1.033   3.452  0.4232  0.3087  0.8824
 4669SOL    HW214324   2.067   1.176   3.409 -0.5225 -0.1939 -0.4031
 4670SOL     OW14325   3.377   2.189   1.295 -0.1464  0.0019  0.1116
 4670SOL    HW114326   3.353   2.241   1.219  0.3670 -0.1987 -0.1875
 4670SOL    HW214327   3.395   2.101   1.260  1.4271  0.2398  0.2614
 4671SOL     OW14328   1.826   0.778   2.844  0.2240 -0.0655 -0.5067
 4671SOL    HW114329   1.889   0.718   2.805 -0.3263 -0.9945 -0.0027
 4671SOL    HW214330   1.838   0.860   2.796 -0.9700 -1.3560 -3.2465
 4672SOL     OW14331   2.017   3.291   3.258  0.2055 -0.0522  0.1557
 4672SOL    HW114332   2.083   3.359   3.275 -0.7992  1.3030 -1.0694
 4672SOL    HW214333   1.963   3.289   3.338  1.4166 -0.8667  0.9912
 4673SOL     OW14334   0.203   3.562   4.532  0.3669 -0.7697 -0.2498
 4673SOL    HW114335   0.198   3.653   4.562 -2.5922 -0.9935  0.2190
 4673SOL    HW214336   0.266   3.520   4.591  0.5187  0.5770  0.5715
 4674SOL     OW14337   5.365   3.546   0.593  0.1562  0.1699  0.2119
 4674SOL    HW114338   5.337   3.486   0.661 -2.0691  0.9438  0.0891
 4674SOL    HW214339   5.440   3.592   0.629 -1.0069  0.6039  2.1951
 4675SOL     OW14340   4.014   4.283   2.199 -0.1093 -0.2405 -0.5821
 4675SOL    HW114341   3.981   4.250   2.282  0.4347 -0.1408 -0.3208
 4675SOL    HW214342   4.029   4.377   2.215 -0.1749 -0.1832 -0.8476
 4676SOL     OW14343   2.691   3.436   1.613 -0.5550  0.1130  0.4420
 4676SOL    HW114344   2.716   3.353   1.574 -1.1670 -0.0110  0.3013
 4676SOL    HW214345   2.600   3.449   1.586 -0.2326  1.2033 -0.1736
 4677SOL     OW14346   1.717   2.787   0.709  0.4016  0.1873  0.1772
 4677SOL    HW114347   1.733   2.865   0.762  1.1278  0.1862 -0.0256
 4677SOL    HW214348   1.804   2.758   0.681  0.0133  0.9554 -2.0943
 4678SOL     OW14349   1.386   3.708   4.589 -0.8808  0.7657  0.1045
 4678SOL    HW114350   1.428   3.756   4.517 -0.5049  2.0527  1.1491
 4678SOL    HW214351   1.344   3.775   4.642 -1.0904 -0.1450  1.1280
 4679SOL     OW14352   0.195   1.301   5.508  0.4638  0.3517 -0.1535
 4679SOL    HW114353   0.214   1.217   5.550  1.3089 -0.3083 -1.7908
 4679SOL    HW214354   0.120   1.336   5.558  0.1546 -1.3137  0.6199
 4680SOL     OW14355   2.476   4.183   3.288 -0.0868 -0.2885  0.4851
 4680SOL    HW114356   2.382   4.171   3.283 -0.3147  1.5307 -0.5282
 4680SOL    HW214357   2.490   4.242   3.362  0.0610  0.8846 -0.4509
 4681SOL     OW14358   4.924   5.095   1.742 -0.0110 -0.0868  0.1732
 4681SOL    HW114359   4.965   5.063   1.822 -0.8083 -0.7850  0.3108
 4681SOL    HW214360   4.960   5.040   1.673 -0.4808 -0.5100  0.2580
 4682SOL     OW14361   2.981   4.308   4.050 -0.1551  0.3555 -0.5573
 4682SOL    HW114362   2.891   4.287   4.027 -0.0773  0.4764 -0.9983
 4682SOL    HW214363   3.032   4.235   4.013  0.1298  1.3191 -2.1987
 4683SOL     OW14364   2.838   3.763   5.331  0.1877  0.2997  0.0278
 4683SOL    HW114365   2.788   3.763   5.249 -2.0217  0.6346  1.2901
 4683SOL    HW214366   2.885   3.847   5.330  0.1747  0.3082 -0.8846
 4684SOL     OW14367   2.963   3.096   4.008  0.4570  0.1232  0.2357
 4684SOL    HW114368   3.043   3.063   3.966  0.7298 -1.3282  1.7682
 4684SOL    HW214369   2.988   3.182   4.043  0.4299  1.0219 -1.8550
 4685SOL     OW14370   5.157   0.762   2.012  0.5019  0.2051  0.4209
 4685SOL    HW114371   5.249   0.775   1.990  0.4405  0.6671  0.4278
 4685SOL    HW214372   5.132   0.684   1.963 -0.0298  2.0115 -2.4713
 4686SOL     OW14373   1.526   3.370   5.013 -0.3659 -0.5667  0.3510
 4686SOL    HW114374   1.610   3.416   5.022 -0.1507 -0.5441 -1.3379
 4686SOL    HW214375   1.470   3.407   5.082  0.1349  1.4817 -0.2755
 4687SOL     OW14376   0.234   5.406   1.471 -0.0948 -1.0128 -0.0622
 4687SOL    HW114377   0.187   5.323   1.474 -0.0392 -1.0118  1.0652
 4687SOL    HW214378   0.273   5.408   1.384 -0.7167 -1.8194 -0.3748
 4688SOL     OW14379   3.251   4.242   2.092 -0.1599 -0.4212  0.3261
 4688SOL    HW114380   3.331   4.294   2.101 -0.1742 -0.1728 -0.7763
 4688SOL    HW214381   3.180   4.304   2.109 -0.2535  0.4498 -2.6758
 4689SOL     OW14382   5.361   0.244   2.492  0.2714  0.0954 -0.1077
 4689SOL    HW114383   5.302   0.211   2.424 -1.6096 -2.3104  2.4550
 4689SOL    HW214384   5.428   0.177   2.501  0.1896  0.1156  0.7403
 4690SOL     OW14385   2.262   2.382   0.951  0.2936 -0.3502 -0.0276
 4690SOL    HW114386   2.250   2.309   0.891 -0.5882 -0.3085  0.0897
 4690SOL    HW214387   2.343   2.423   0.922  0.7427 -1.3050 -0.1593
 4691SOL     OW14388   1.186   5.415   2.611  0.0743 -0.2130  0.1239
 4691SOL    HW114389   1.129   5.467   2.555  0.8949  0.7008  0.1108
 4691SOL    HW214390   1.173   5.452   2.699  0.1486 -0.4372  0.2298
 4692SOL     OW14391   3.368   3.238   1.810 -0.2325 -0.7332 -0.5424
 4692SOL    HW114392   3.307   3.312   1.811 -3.0402 -2.8254  2.0113
 4692SOL    HW214393   3.444   3.268   1.860 -1.7044  0.2422  1.2412
 4693SOL     OW14394   2.432   3.452   1.482  0.2595 -0.6382 -0.1525
 4693SOL    HW114395   2.338   3.463   1.498  0.0633 -1.9779 -0.2935
 4693SOL    HW214396   2.447   3.496   1.398 -0.4726 -1.3679 -0.6849
 4694SOL     OW14397   2.717   4.206   3.037  0.4463  0.5349  0.1074
 4694SOL    HW114398   2.784   4.238   3.097  0.0436  1.0374  0.2930
 4694SOL    HW214399   2.689   4.284   2.989 -0.3568  0.4130  0.3767
 4695SOL     OW14400   0.573   5.365   4.123 -0.1987  0.1718 -0.7395
 4695SOL    HW114401   0.507   5.345   4.190  0.2416 -0.5844 -0.5218
 4695SOL    HW214402   0.653   5.324   4.156  0.1608  0.3012 -1.4468
 4696SOL     OW14403   1.616   3.324   0.026 -0.2420 -0.0053 -0.5929
 4696SOL    HW114404   1.600   3.232   0.005  0.6380 -0.2821 -0.1190
 4696SOL    HW214405   1.633   3.364  -0.059  1.1745 -0.6782 -0.6719
 4697SOL     OW14406   1.735   4.378   4.559  0.4376  0.4244  0.3574
 4697SOL    HW114407   1.670   4.309   4.553  1.3574 -0.4119 -0.3273
 4697SOL    HW214408   1.686   4.459   4.543 -0.4291 -0.1756 -0.0760
 4698SOL     OW14409   4.291   0.291   3.149 -0.0674 -0.0568  0.0076
 4698SOL    HW114410   4.210   0.245   3.168 -0.7511  0.9402 -0.4089
 4698SOL    HW214411   4.263   0.373   3.109  1.1918 -0.4408 -1.7753
 4699SOL     OW14412   2.987   3.619   4.450  0.1038  0.0878 -0.5780
 4699SOL    HW114413   2.990   3.531   4.487  1.9256  0.2225 -0.2727
 4699SOL    HW214414   2.894   3.637   4.437 -0.3342 -1.6717 -0.1757
 4700SOL     OW14415   5.274   3.120   1.502 -0.6241 -0.5483 -0.0039
 4700SOL    HW114416   5.295   3.039   1.550  1.1533  0.1480  0.4795
 4700SOL    HW214417   5.334   3.185   1.539 -0.8068  0.5659 -1.6050
 4701SOL     OW14418   3.338   0.595   0.682 -0.2833  0.7329  0.0500
 4701SOL    HW114419   3.361   0.638   0.765 -0.0268  0.5294  0.0863
 4701SOL    HW214420   3.421   0.562   0.648 -0.5240 -0.0799  0.2177
 4702SOL     OW14421   1.641   3.670   3.339  0.6509  0.4446  0.1840
 4702SOL    HW114422   1.727   3.699   3.310  0.2467  0.8623 -0.6485
 4702SOL    HW214423   1.646   3.575   3.340  1.6997  0.4707  1.9920
 4703SOL     OW14424   2.065   4.339   0.686 -0.5640  0.1396 -0.0546
 4703SOL    HW114425   2.092   4.248   0.700 -3.2590 -0.6601  0.4871
 4703SOL    HW214426   1.977   4.332   0.650 -0.1375  2.5526 -1.8167
 4704SOL     OW14427   0.498   0.620   2.473 -0.4238  0.2897  0.4862
 4704SOL    HW114428   0.420   0.572   2.498 -1.3119 -0.1740 -2.7327
 4704SOL    HW214429   0.477   0.712   2.493 -2.1491  0.2685 -1.0160
 4705SOL     OW14430   2.667   1.603   4.352  0.0131 -0.6390 -0.4612
 4705SOL    HW114431   2.659   1.513   4.320 -0.8027 -0.7387 -0.0224
 4705SOL    HW214432   2.637   1.657   4.278 -1.2729 -0.8380 -0.1205
 4706SOL     OW14433   1.006   4.936   2.843  0.4978  0.9214  0.2438
 4706SOL    HW114434   0.998   4.997   2.770  0.1748  0.9924  0.3346
 4706SOL    HW214435   1.044   4.857   2.806 -2.0360 -0.0151 -0.5566
 4707SOL     OW14436   0.279   5.198   2.414  0.0642  0.0654  1.3625
 4707SOL    HW114437   0.238   5.153   2.341 -1.0546  1.3824  1.1416
 4707SOL    HW214438   0.373   5.193   2.395 -0.1966  0.2373 -0.0741
 4708SOL     OW14439   0.082   4.875   2.544  0.2233  0.1485  0.4790
 4708SOL    HW114440   0.074   4.970   2.554  0.3327  0.2661 -0.4503
 4708SOL    HW214441  -0.000   4.848   2.504  0.1789 -0.1612  0.7726
 4709SOL     OW14442   2.514   4.253   1.447  0.1287  0.1461  0.3494
 4709SOL    HW114443   2.590   4.282   1.396  0.6461 -0.3271  0.8342
 4709SOL    HW214444   2.438   4.287   1.399  0.6056 -0.1671 -0.6561
 4710SOL     OW14445   1.784   2.326   0.521 -0.1217  0.0037 -0.3534
 4710SOL    HW114446   1.854   2.383   0.552 -0.7144  0.2661  0.5572
 4710SOL    HW214447   1.707   2.383   0.519 -0.2773 -0.2308 -1.5298
 4711SOL     OW14448   1.451   0.952   2.598  0.4632  0.9120 -0.6449
 4711SOL    HW114449   1.466   0.873   2.650 -2.0083  1.4861  1.1432
 4711SOL    HW214450   1.447   0.921   2.508 -2.0083 -1.3742  0.1135
 4712SOL     OW14451   5.118   4.423   5.445 -0.0030  0.0242  0.0854
 4712SOL    HW114452   5.058   4.350   5.429 -1.3737  0.6783  1.8381
 4712SOL    HW214453   5.098   4.486   5.376 -0.7818 -0.1226  0.1663
 4713SOL     OW14454   2.000   0.014   2.966 -0.3491  0.3392 -0.7072
 4713SOL    HW114455   1.950   0.054   2.895 -1.5505 -2.7352 -1.7854
 4713SOL    HW214456   1.936  -0.041   3.012  0.7598  1.0244  1.8258
 4714SOL     OW14457   2.155   0.493   1.432 -0.4739 -0.1003 -0.7781
 4714SOL    HW114458   2.197   0.536   1.507 -0.0047  0.8777 -1.5875
 4714SOL    HW214459   2.120   0.411   1.469 -1.1258  0.8006  0.7403
 4715SOL     OW14460   1.112   2.165   2.715 -0.0998  0.2169  0.3108
 4715SOL    HW114461   1.205   2.160   2.737 -0.2156  1.2565  1.1259
 4715SOL    HW214462   1.072   2.208   2.791 -1.1922  0.0942 -0.1765
 4716SOL     OW14463   3.372   4.496   1.968 -0.1605 -0.6845  0.1932
 4716SOL    HW114464   3.298   4.474   1.912  1.1861  1.9057 -2.8772
 4716SOL    HW214465   3.444   4.441   1.937  0.4708  0.4301 -0.3946
 4717SOL     OW14466   1.431   0.127   2.805  0.1683 -0.5842 -0.2170
 4717SOL    HW114467   1.363   0.137   2.871  0.0112  0.9039 -0.5657
 4717SOL    HW214468   1.491   0.061   2.841 -1.5003 -2.0393  0.0200
 4718SOL     OW14469   4.933   2.623   0.379 -0.3380 -0.0090  0.0296
 4718SOL    HW114470   4.879   2.699   0.403  0.7777  0.5785  0.7472
 4718SOL    HW214471   4.905   2.554   0.438  1.5810  1.1000  2.3924
 4719SOL     OW14472   3.541   0.518   1.648 -0.2044  0.2967  0.0198
 4719SOL    HW114473   3.566   0.428   1.624  0.0104 -0.1893  1.9107
 4719SOL    HW214474   3.467   0.538   1.591 -0.4278 -1.1865 -0.2610
 4720SOL     OW14475   5.302   1.534   4.851 -0.0184  0.4295  1.0107
 4720SOL    HW114476   5.302   1.629   4.838 -1.3343  0.5182  1.5560
 4720SOL    HW214477   5.292   1.498   4.762  0.5599  0.7883  0.7943
 4721SOL     OW14478   0.280   5.090   1.762 -0.1456 -0.0689 -0.3864
 4721SOL    HW114479   0.327   5.054   1.837 -0.1722 -2.8147 -1.6009
 4721SOL    HW214480   0.349   5.129   1.707  0.0181  0.7380  0.3625
 4722SOL     OW14481   5.156   0.106   2.632 -0.3496  0.3223 -0.3205
 4722SOL    HW114482   5.200   0.048   2.694 -0.3301 -1.0493 -1.5650
 4722SOL    HW214483   5.213   0.183   2.627  0.7851 -0.4819 -0.2657
 4723SOL     OW14484   1.647   1.846   3.699 -0.3989  0.1012 -0.7638
 4723SOL    HW114485   1.646   1.757   3.735 -0.9977  0.5373  0.3259
 4723SOL    HW214486   1.739   1.861   3.676 -0.2385 -0.6871 -0.6787
 4724SOL     OW14487   4.546   4.542   4.013 -0.5058 -0.1159 -0.5061
 4724SOL    HW114488   4.473   4.501   4.059 -0.5029 -1.9725 -2.0276
 4724SOL    HW214489   4.538   4.511   3.923  0.0826  2.5535 -1.5782
 4725SOL     OW14490   2.550   2.558   1.426  0.0684 -0.6295  0.2768
 4725SOL    HW114491   2.629   2.601   1.393 -0.5161  1.2114  1.1693
 4725SOL    HW214492   2.538   2.483   1.368  2.3992 -0.9059  0.0485
 4726SOL     OW14493   5.498   0.594   2.920  0.3288 -0.1653  0.2296
 4726SOL    HW114494   5.550   0.602   3.000  0.1064  0.1813  0.3399
 4726SOL    HW214495   5.522   0.508   2.885 -0.2388 -0.7117  1.1411
 4727SOL     OW14496   0.105   0.385   4.253 -0.1965 -0.2305  0.1580
 4727SOL    HW114497   0.091   0.384   4.348 -0.7094  0.2144  0.0893
 4727SOL    HW214498   0.026   0.425   4.217  0.9394  1.7388 -0.2972
 4728SOL     OW14499   5.285   2.602   4.460  0.4085 -0.5781  0.8364
 4728SOL    HW114500   5.223   2.550   4.511  0.1126  0.4852  1.5960
 4728SOL    HW214501   5.371   2.566   4.483  0.0988 -2.3200 -0.5222
 4729SOL     OW14502   2.589   3.528   4.016  0.4281  0.0224  0.0568
 4729SOL    HW114503   2.496   3.549   4.003  0.2700  0.5166  1.8468
 4729SOL    HW214504   2.590   3.461   4.084  1.3975 -0.0775 -0.0379
 4730SOL     OW14505   1.306   1.887   1.431  0.6310  0.0735 -0.0847
 4730SOL    HW114506   1.355   1.962   1.465  0.1180  1.0604 -1.4283
 4730SOL    HW214507   1.235   1.926   1.380  0.8042 -1.3213 -1.4540
 4731SOL     OW14508   0.240   4.733   1.514 -0.1676 -0.8141 -0.4799
 4731SOL    HW114509   0.211   4.646   1.487 -1.6844 -0.1566 -1.0928
 4731SOL    HW214510   0.194   4.749   1.597  1.4469 -1.2528  0.5564
 4732SOL     OW14511   1.635   3.438   5.348  0.0390  0.2316  0.0837
 4732SOL    HW114512   1.553   3.461   5.305  0.5562 -0.4561 -1.3447
 4732SOL    HW214513   1.703   3.481   5.295  0.5820  1.8086  1.9409
 4733SOL     OW14514   2.743   2.540   0.848 -0.3867 -0.3628  0.5811
 4733SOL    HW114515   2.834   2.514   0.862 -0.1445  0.0022 -0.2040
 4733SOL    HW214516   2.740   2.631   0.879  0.1290  0.4148 -1.4703
 4734SOL     OW14517   1.643   2.657   0.261  0.4571  0.3152  0.1994
 4734SOL    HW114518   1.654   2.749   0.282 -0.3544  0.4007  0.3005
 4734SOL    HW214519   1.638   2.614   0.347 -0.0332  0.2946  0.1629
 4735SOL     OW14520   1.187   3.528   1.691  0.6022 -0.4990  0.4084
 4735SOL    HW114521   1.180   3.456   1.628  2.0800  0.0951 -0.4718
 4735SOL    HW214522   1.278   3.557   1.684 -0.1601  2.0013  0.1232
 4736SOL     OW14523   0.217   0.418   0.215  0.5338  0.1932 -0.1153
 4736SOL    HW114524   0.248   0.345   0.268  3.6736  0.8852 -0.8084
 4736SOL    HW214525   0.250   0.400   0.127 -2.7411  0.1407 -1.5074
 4737SOL     OW14526   4.687   1.773   5.513  0.1158 -0.0531  0.2991
 4737SOL    HW114527   4.781   1.781   5.526  0.2780 -1.3398  0.0111
 4737SOL    HW214528   4.677   1.726   5.430 -0.7768 -0.3005  0.5321
 4738SOL     OW14529   3.756   1.258   3.947 -0.4424 -0.3513 -0.2888
 4738SOL    HW114530   3.750   1.348   3.977  0.1733 -0.6667  0.8322
 4738SOL    HW214531   3.668   1.222   3.960 -0.1928 -0.4807  1.1972
 4739SOL     OW14532   5.552   4.105   1.955  0.4364 -0.0579  0.1234
 4739SOL    HW114533   5.614   4.173   1.981 -1.1628  0.8859  1.6882
 4739SOL    HW214534   5.572   4.088   1.863  0.0989  3.4240 -0.7107
 4740SOL     OW14535   0.014   1.747   4.855 -1.0900  0.4270 -0.0178
 4740SOL    HW114536  -0.060   1.712   4.905 -1.3006  0.6291 -0.1822
 4740SOL    HW214537   0.000   1.842   4.855 -1.5592  0.3882 -1.1470
 4741SOL     OW14538   5.139   1.749   0.521 -0.2559  0.4278 -0.0882
 4741SOL    HW114539   5.087   1.828   0.503 -0.2210  1.0116  2.1123
 4741SOL    HW214540   5.217   1.759   0.465 -1.2308  0.8727 -1.4141
 4742SOL     OW14541   1.431   0.076   0.339 -0.0833 -0.0183  0.2428
 4742SOL    HW114542   1.502   0.013   0.330  2.2959  2.6407 -0.8898
 4742SOL    HW214543   1.354   0.030   0.302  1.5271 -2.1682 -0.6667
 4743SOL     OW14544   5.234   2.032   4.081 -0.0861  0.1316  0.4367
 4743SOL    HW114545   5.203   1.943   4.067  2.0786 -0.7545  0.8619
 4743SOL    HW214546   5.237   2.043   4.176  1.0714  0.0876  0.4233
 4744SOL     OW14547   1.026   4.890   3.959  0.0883  0.5566 -0.4501
 4744SOL    HW114548   1.117   4.891   3.927  0.6197  0.0549  0.9793
 4744SOL    HW214549   1.005   4.982   3.971  0.2587  0.6982 -1.1490
 4745SOL     OW14550   0.878   2.488   3.058 -0.0863  0.3688  0.1860
 4745SOL    HW114551   0.969   2.466   3.081  0.3955  2.4071  0.4246
 4745SOL    HW214552   0.853   2.422   2.994  1.4301 -0.4915  0.4302
 4746SOL     OW14553   1.226   3.739   0.523  0.5155  0.0767  0.0611
 4746SOL    HW114554   1.196   3.672   0.585  2.8683 -1.1588 -0.0414
 4746SOL    HW214555   1.193   3.710   0.438 -1.2207  0.8353  0.4353
 4747SOL     OW14556   3.226   0.677   2.266 -0.2762 -0.9060 -0.3073
 4747SOL    HW114557   3.317   0.646   2.263  0.2560  0.4494  0.6156
 4747SOL    HW214558   3.198   0.657   2.356 -0.0985  0.6974  0.1394
 4748SOL     OW14559   0.078   0.949   3.901  0.7037 -0.1821 -0.0672
 4748SOL    HW114560   0.151   0.964   3.961  0.4424  0.6587  0.0574
 4748SOL    HW214561   0.084   0.856   3.879  0.6111 -0.5823  1.4872
 4749SOL     OW14562   2.831   1.415   0.266 -0.3454  0.1589 -0.4938
 4749SOL    HW114563   2.878   1.451   0.341  0.1263  2.4435 -1.7882
 4749SOL    HW214564   2.899   1.375   0.212 -0.0783  1.8043 -1.4490
 4750SOL     OW14565   2.454   2.325   5.285  0.0520  0.3589  0.3989
 4750SOL    HW114566   2.381   2.267   5.304 -0.0677 -0.8428 -2.9150
 4750SOL    HW214567   2.414   2.406   5.254  0.1441  0.5103  0.6780
 4751SOL     OW14568   0.701   4.946   3.417 -0.3380  0.6050  0.5494
 4751SOL    HW114569   0.737   5.007   3.481  1.2446  1.0920 -0.7255
 4751SOL    HW214570   0.692   4.998   3.337 -1.0523 -0.2971  0.0170
 4752SOL     OW14571   0.505   2.108   1.423  0.2258  0.2568  0.6628
 4752SOL    HW114572   0.458   2.191   1.437 -0.0417 -0.1413  2.3307
 4752SOL    HW214573   0.439   2.050   1.385 -0.1915  0.1792  1.4911
 4753SOL     OW14574   2.539   2.611   4.393  0.6291 -0.6987 -0.4903
 4753SOL    HW114575   2.566   2.700   4.416 -0.2577 -0.6634  0.4836
 4753SOL    HW214576   2.557   2.560   4.472  0.5707 -1.2709 -0.8407
 4754SOL     OW14577   5.024   2.200   1.056  0.5926  0.5394 -0.5040
 4754SOL    HW114578   5.086   2.144   1.104  0.3666  0.2228 -0.5765
 4754SOL    HW214579   5.024   2.282   1.104 -0.5448 -0.1720  0.7633
 4755SOL     OW14580   1.638   0.617   2.262 -0.4236 -0.1654 -0.6491
 4755SOL    HW114581   1.684   0.533   2.263 -0.6797 -0.3063 -0.2147
 4755SOL    HW214582   1.576   0.610   2.190 -2.1319 -1.2984  0.8279
 4756SOL     OW14583   2.350   1.787   3.504 -0.3717 -0.1492 -0.0657
 4756SOL    HW114584   2.307   1.735   3.570 -2.6607 -0.2256 -1.5194
 4756SOL    HW214585   2.389   1.723   3.444 -1.5979 -0.2121 -0.8362
 4757SOL     OW14586   0.843   0.841   4.141 -0.1820 -0.4031  0.0570
 4757SOL    HW114587   0.903   0.769   4.120 -1.0828 -0.3824 -3.1376
 4757SOL    HW214588   0.880   0.916   4.094 -1.2167  0.2955  0.3379
 4758SOL     OW14589   3.055   2.746   4.733  0.5082  0.1701  0.3251
 4758SOL    HW114590   3.090   2.833   4.753 -0.5633  0.3805  1.4149
 4758SOL    HW214591   3.024   2.713   4.817 -0.6213 -0.5746 -0.3575
 4759SOL     OW14592   3.348   3.710   1.321  0.4305  0.8173 -0.0973
 4759SOL    HW114593   3.293   3.773   1.368 -1.2282 -0.9867  0.4879
 4759SOL    HW214594   3.331   3.728   1.228 -0.8139  0.6126  0.0698
 4760SOL     OW14595   2.511   3.690   0.230 -0.3036  0.2499  0.4396
 4760SOL    HW114596   2.544   3.777   0.253 -0.3239  0.6433 -0.9282
 4760SOL    HW214597   2.533   3.680   0.137 -1.4591 -0.6754  0.2478
 4761SOL     OW14598   3.598   5.163   4.824 -0.2092 -0.0456  0.1853
 4761SOL    HW114599   3.555   5.244   4.852  0.0643  0.3642 -0.5480
 4761SOL    HW214600   3.661   5.144   4.893 -0.3488  0.3146  0.4172
 4762SOL     OW14601   2.309   4.516   3.807  0.2966  0.2824  0.3250
 4762SOL    HW114602   2.251   4.490   3.735  2.3204 -1.7152 -0.7414
 4762SOL    HW214603   2.313   4.611   3.802 -1.4979  0.3528 -0.6487
 4763SOL     OW14604   4.889   3.055   5.347 -0.0897 -0.3731  0.4920
 4763SOL    HW114605   4.974   3.011   5.350  1.3284  2.0660 -0.3957
 4763SOL    HW214606   4.833   2.996   5.296  0.8937 -2.2543  1.4929
 4764SOL     OW14607   3.196   0.942   3.723 -0.4875 -0.2587 -0.5651
 4764SOL    HW114608   3.270   0.944   3.783 -1.7237 -1.0170  1.0664
 4764SOL    HW214609   3.145   0.866   3.750 -1.4687 -0.2239 -2.1541
 4765SOL     OW14610   4.504   4.842   0.656 -0.2765  0.2055 -0.2588
 4765SOL    HW114611   4.590   4.805   0.635 -0.5198 -0.3999 -0.2124
 4765SOL    HW214612   4.504   4.846   0.752 -0.9188 -1.3571 -0.1597
 4766SOL     OW14613   2.086   3.698   3.063  0.0826  0.2708  0.1559
 4766SOL    HW114614   2.136   3.779   3.073  1.4954 -0.3410 -1.4684
 4766SOL    HW214615   2.074   3.688   2.969  1.0896 -2.0439  0.2068
 4767SOL     OW14616   0.293   3.748   1.111  0.4159  0.3698  0.3756
 4767SOL    HW114617   0.222   3.775   1.169  0.3721  1.2716 -0.0732
 4767SOL    HW214618   0.305   3.823   1.052 -0.4791 -1.0316 -1.6728
 4768SOL     OW14619   0.232   5.178   5.045 -0.3068  0.1503  0.3230
 4768SOL    HW114620   0.137   5.174   5.059 -0.3306 -0.1484  0.0525
 4768SOL    HW214621   0.268   5.189   5.134 -0.5305 -0.7544  0.5334
 4769SOL     OW14622   0.323   1.186   0.666  0.0852  0.3794  0.4634
 4769SOL    HW114623   0.378   1.149   0.735  1.1326  0.7175 -0.1773
 4769SOL    HW214624   0.275   1.257   0.709 -1.0315 -0.8888  1.3996
 4770SOL     OW14625   3.847   2.360   3.019  0.7123 -0.0913 -0.4846
 4770SOL    HW114626   3.868   2.269   3.039 -0.0131 -0.3100 -0.7025
 4770SOL    HW214627   3.844   2.363   2.923  0.6046  0.1344 -0.4740
 4771SOL     OW14628   3.192   4.819   2.923 -0.0890  0.5380  0.0323
 4771SOL    HW114629   3.275   4.810   2.969  0.2607  0.9699 -0.4984
 4771SOL    HW214630   3.142   4.741   2.948  0.2196  0.5980  0.8625
 4772SOL     OW14631   1.011   1.995   0.281 -0.1495  0.4820  0.1372
 4772SOL    HW114632   1.006   2.054   0.206  1.5977 -1.8469 -1.9736
 4772SOL    HW214633   1.097   2.013   0.320 -0.1643  0.2293  0.2897
 4773SOL     OW14634   0.622   4.124   2.729  0.7064  0.0054 -0.4057
 4773SOL    HW114635   0.707   4.082   2.715 -0.4827 -2.4353 -0.8980
 4773SOL    HW214636   0.622   4.149   2.821  1.7453 -0.4812 -0.2627
 4774SOL     OW14637   4.901   4.609   1.470  0.1947 -0.2483 -0.3668
 4774SOL    HW114638   4.819   4.564   1.450  0.6143 -1.7002  0.9804
 4774SOL    HW214639   4.965   4.571   1.409  0.3692 -0.9044  0.2130
 4775SOL     OW14640   5.316   3.832   5.297 -0.0221  0.2038 -0.1393
 4775SOL    HW114641   5.270   3.792   5.372  1.1560  1.8019  1.5289
 4775SOL    HW214642   5.370   3.901   5.336  4.4080 -1.9315 -1.7991
 4776SOL     OW14643   0.568   4.240   4.278  0.3010 -0.2588 -0.3742
 4776SOL    HW114644   0.576   4.316   4.335  1.2251 -0.3543 -0.3678
 4776SOL    HW214645   0.655   4.201   4.276 -0.4348 -2.0983  0.6927
 4777SOL     OW14646   1.251   0.115   3.016  0.2016 -0.4302 -0.2214
 4777SOL    HW114647   1.306   0.117   3.095  0.8334 -0.6910 -0.6483
 4777SOL    HW214648   1.228   0.206   3.000  2.3009 -0.0444 -1.2692
 4778SOL     OW14649   0.992   3.762   3.108 -0.1516  0.1492 -0.4060
 4778SOL    HW114650   0.976   3.694   3.043  0.8395  0.7217 -1.2904
 4778SOL    HW214651   0.990   3.844   3.058  0.9221  0.5744  0.1995
 4779SOL     OW14652   4.568   0.994   3.341 -0.2009 -0.0461 -0.1842
 4779SOL    HW114653   4.479   0.984   3.374 -0.6892 -0.3651 -1.5294
 4779SOL    HW214654   4.608   0.908   3.350  0.5521  0.4634  1.9208
 4780SOL     OW14655   4.102   1.413   2.942  0.5456  0.3696 -0.1443
 4780SOL    HW114656   4.048   1.405   2.863 -1.4267  0.6287  1.1040
 4780SOL    HW214657   4.171   1.348   2.930  0.6321  0.7647 -2.3005
 4781SOL     OW14658   4.507   1.069   3.714  0.2756  0.5259  0.0856
 4781SOL    HW114659   4.494   0.994   3.772  1.1306 -0.4060 -0.8713
 4781SOL    HW214660   4.442   1.057   3.645 -1.0235  1.8588  1.0367
 4782SOL     OW14661   1.829   2.902   2.845  0.5089  0.0978  0.1136
 4782SOL    HW114662   1.782   2.982   2.821 -0.5502 -0.5087  0.1033
 4782SOL    HW214663   1.761   2.843   2.876  1.4966 -0.1597  1.9212
 4783SOL     OW14664   4.656   4.143   5.557  0.1642  0.5347  0.3057
 4783SOL    HW114665   4.723   4.136   5.489  1.3156  0.8601  1.3694
 4783SOL    HW214666   4.697   4.105   5.634 -1.2751 -0.2105  0.7256
 4784SOL     OW14667   3.683   4.499   0.690  0.1281 -0.9686  0.2156
 4784SOL    HW114668   3.668   4.571   0.752 -3.1390 -0.3437 -1.0890
 4784SOL    HW214669   3.691   4.421   0.745  4.0936  0.2234  1.6972
 4785SOL     OW14670   1.502   0.530   3.899 -0.7039 -0.2595 -0.1261
 4785SOL    HW114671   1.425   0.477   3.878 -0.3338 -1.0113  0.3589
 4785SOL    HW214672   1.567   0.467   3.929 -0.1817  0.4542  0.2762
 4786SOL     OW14673   2.233   1.023   2.917 -0.1427  0.2594  0.4679
 4786SOL    HW114674   2.284   0.954   2.958 -2.6828 -1.7332  0.5173
 4786SOL    HW214675   2.152   1.026   2.968 -1.1452  1.5103 -1.1031
 4787SOL     OW14676   0.442   0.447   4.377  0.0040 -0.4307 -0.1373
 4787SOL    HW114677   0.456   0.366   4.327  0.8489  0.1746 -0.9181
 4787SOL    HW214678   0.521   0.498   4.362 -1.4236  1.5121 -1.5342
 4788SOL     OW14679   5.003   0.402   0.448 -0.1900  0.3527  0.4458
 4788SOL    HW114680   5.036   0.484   0.484 -0.6187  1.4714 -1.5748
 4788SOL    HW214681   4.921   0.386   0.496 -0.1847  1.1819  0.7469
 4789SOL     OW14682   4.618   2.398   3.858  0.3785  0.0424 -0.2709
 4789SOL    HW114683   4.599   2.372   3.768 -0.7486 -0.1686  0.0055
 4789SOL    HW214684   4.539   2.374   3.907  0.1977  1.8621  0.4182
 4790SOL     OW14685   2.719   0.288   0.835  0.0442 -0.4114  0.7581
 4790SOL    HW114686   2.647   0.291   0.899 -1.6529 -0.8546 -1.0188
 4790SOL    HW214687   2.745   0.379   0.824  0.0575 -0.2851  1.7453
 4791SOL     OW14688   5.510   2.034   4.530 -0.5313 -0.0968 -0.0686
 4791SOL    HW114689   5.419   2.064   4.529 -0.7632 -0.7743 -0.5563
 4791SOL    HW214690   5.507   1.948   4.487  0.3019 -0.2338  0.1293
 4792SOL     OW14691   3.658   2.247   4.154  0.2877 -0.0676  0.0067
 4792SOL    HW114692   3.727   2.190   4.121 -0.9517 -0.6850 -1.6646
 4792SOL    HW214693   3.585   2.236   4.093 -0.7962  1.6582  0.8706
 4793SOL     OW14694   5.190   2.040   1.172  0.0137 -0.1592 -0.4346
 4793SOL    HW114695   5.207   2.090   1.252  0.1032 -1.5418  0.4418
 4793SOL    HW214696   5.212   1.950   1.195  0.5917 -0.5028 -2.2037
 4794SOL     OW14697   2.148   0.224   4.913 -0.1284  0.0818  0.4701
 4794SOL    HW114698   2.200   0.261   4.842 -1.4197 -1.5586 -1.4691
 4794SOL    HW214699   2.200   0.150   4.945 -0.1582 -0.0199  0.2825
 4795SOL     OW14700   1.711   4.334   2.397 -0.1387  0.6084 -0.1586
 4795SOL    HW114701   1.743   4.254   2.438 -0.3051  1.1163  1.0083
 4795SOL    HW214702   1.685   4.307   2.309  1.2092 -0.2979 -0.3141
 4796SOL     OW14703   5.041   2.697   3.688  0.4696  0.3378  0.3878
 4796SOL    HW114704   5.120   2.724   3.642 -0.3389 -0.0066 -1.3014
 4796SOL    HW214705   5.041   2.601   3.682 -1.1012  0.3858 -1.5896
 4797SOL     OW14706   4.369   4.330   1.573 -0.4880 -0.0678  0.4165
 4797SOL    HW114707   4.319   4.277   1.511 -1.1918  1.2895 -0.2302
 4797SOL    HW214708   4.454   4.287   1.579 -0.6420 -0.6081 -0.9691
 4798SOL     OW14709   1.812   1.866   4.057  0.0196 -0.1280 -0.0711
 4798SOL    HW114710   1.782   1.828   4.139 -0.8520 -0.6615 -0.6231
 4798SOL    HW214711   1.814   1.793   3.995 -1.2852  0.6155 -1.0359
 4799SOL     OW14712   2.002   1.552   3.270 -0.4247 -0.4642 -0.2746
 4799SOL    HW114713   1.995   1.621   3.205  0.4315  0.3300  0.4593
 4799SOL    HW214714   2.009   1.471   3.219  1.0617  0.2147 -1.1871
 4800SOL     OW14715   2.939   1.644   4.007  0.1599 -0.8779 -0.1380
 4800SOL    HW114716   2.885   1.723   4.000  0.5256 -0.4644  1.2857
 4800SOL    HW214717   2.878   1.572   3.990 -0.1783 -0.3035 -1.4746
 4801SOL     OW14718   5.292   2.780   4.107  0.3303  0.0477 -0.4322
 4801SOL    HW114719   5.298   2.685   4.110  1.2879  0.1241  0.1250
 4801SOL    HW214720   5.211   2.796   4.057 -0.7421 -1.0549  0.8725
 4802SOL     OW14721   1.436   0.519   2.921 -0.2631  0.9572  0.2143
 4802SOL    HW114722   1.406   0.600   2.880 -2.2691  0.5503  0.7595
 4802SOL    HW214723   1.366   0.457   2.905  0.0537  0.0669  2.0397
 4803SOL     OW14724   4.765   1.284   4.286 -0.1472 -0.3030 -0.3030
 4803SOL    HW114725   4.697   1.218   4.300 -1.6501  0.8584 -1.6922
 4803SOL    HW214726   4.720   1.368   4.296  0.8181  0.5046 -2.2005
 4804SOL     OW14727   0.389   4.607   3.858 -0.4201  0.3963 -0.2993
 4804SOL    HW114728   0.362   4.518   3.881  0.3674  0.7025  2.0401
 4804SOL    HW214729   0.479   4.597   3.826 -0.4023  0.3314 -0.2290
 4805SOL     OW14730   4.617   3.623   0.297 -0.6469  0.2851  0.0199
 4805SOL    HW114731   4.593   3.576   0.217  0.5313  0.9207 -0.7297
 4805SOL    HW214732   4.648   3.708   0.266 -1.8451  1.2391  1.2795
 4806SOL     OW14733   3.039   3.038   0.621 -0.3588 -1.0968  0.0396
 4806SOL    HW114734   3.070   3.016   0.709 -0.3925  2.4047  1.1063
 4806SOL    HW214735   2.946   3.058   0.633 -0.9874 -2.9667 -1.3513
 4807SOL     OW14736   5.031   4.057   4.499  0.0766  0.6651  0.2810
 4807SOL    HW114737   5.006   4.000   4.426 -2.0146  0.4675  1.0752
 4807SOL    HW214738   5.125   4.071   4.487  0.0183 -0.2488 -1.8043
 4808SOL     OW14739   4.018   5.542   3.958  0.5603  0.4682 -0.0553
 4808SOL    HW114740   4.064   5.462   3.933  2.7834  1.3363  1.0225
 4808SOL    HW214741   3.946   5.512   4.014  3.2581 -0.6730  3.0516
 4809SOL     OW14742   0.045   0.934   0.804  0.1064  0.2461 -0.4234
 4809SOL    HW114743   0.032   1.028   0.805 -0.0335  0.2337  1.5292
 4809SOL    HW214744   0.137   0.922   0.830  0.6560 -0.1348 -2.3358
 4810SOL     OW14745   4.043   1.303   1.852 -0.2700 -0.2258  0.1495
 4810SOL    HW114746   4.029   1.321   1.945 -1.1738 -0.8507  0.1576
 4810SOL    HW214747   3.956   1.312   1.813  0.4509  2.3154 -1.0857
 4811SOL     OW14748   5.127   5.344   0.955 -0.2171 -0.1921  0.4035
 4811SOL    HW114749   5.188   5.295   1.010 -1.0284 -0.7560  0.8161
 4811SOL    HW214750   5.165   5.432   0.951 -0.7167  0.2094  2.8596
 4812SOL     OW14751   1.007   4.836   3.513 -0.2691 -0.0578 -0.1902
 4812SOL    HW114752   1.094   4.818   3.478  1.3374  0.8320  3.0266
 4812SOL    HW214753   1.002   4.932   3.518 -0.7234 -0.1331  1.2028
 4813SOL     OW14754   3.545   4.815   5.262 -0.2030 -0.2785  0.4983
 4813SOL    HW114755   3.599   4.754   5.211 -1.0371  0.1216 -0.9187
 4813SOL    HW214756   3.456   4.800   5.230 -0.5914  0.8109  1.0235
 4814SOL     OW14757   0.365   0.654   1.261  0.4337  0.1382 -0.2011
 4814SOL    HW114758   0.328   0.682   1.345  0.1719  0.8244 -0.5405
 4814SOL    HW214759   0.308   0.694   1.195  1.2093  0.4080 -0.7200
 4815SOL     OW14760   3.107   2.026   1.190  0.4133  0.3721  0.1268
 4815SOL    HW114761   3.025   1.992   1.155 -0.0257  0.4807  1.0248
 4815SOL    HW214762   3.164   2.035   1.113 -0.4949  0.5521 -0.5415
 4816SOL     OW14763   0.975   4.267   0.062 -0.2690 -0.4654 -0.1723
 4816SOL    HW114764   1.045   4.281   0.125 -1.1864  0.1701  0.7284
 4816SOL    HW214765   0.948   4.176   0.075  0.9797 -1.0161 -1.1726
 4817SOL     OW14766   1.855   3.878   5.083  0.3482 -0.0011  0.1798
 4817SOL    HW114767   1.934   3.872   5.136 -1.0477  2.7682  2.9352
 4817SOL    HW214768   1.866   3.959   5.032 -1.2458  1.3122  1.8040
 4818SOL     OW14769   4.365   4.553   5.160  0.2927  0.1193  0.2139
 4818SOL    HW114770   4.325   4.616   5.100  1.1870 -1.0153 -1.6747
 4818SOL    HW214771   4.451   4.589   5.179  0.4118 -0.0239 -0.0459
 4819SOL     OW14772   0.578   0.036   1.069 -0.3452 -0.5136  0.7346
 4819SOL    HW114773   0.579   0.037   0.973  1.0542 -0.2747  0.7345
 4819SOL    HW214774   0.626   0.115   1.094 -2.1095  0.3236  1.6602
 4820SOL     OW14775   2.674   4.598   1.819  0.1133  0.2258  0.2424
 4820SOL    HW114776   2.610   4.529   1.838 -0.2419  0.3310 -0.5642
 4820SOL    HW214777   2.707   4.624   1.906 -1.0747  0.3184  0.6833
 4821SOL     OW14778   2.922   1.656   4.300 -0.1639  0.8627  0.0029
 4821SOL    HW114779   2.835   1.622   4.316  0.0769  0.0812 -0.2959
 4821SOL    HW214780   2.947   1.619   4.215  1.9409 -2.0819  1.7129
 4822SOL     OW14781   1.692   0.909   2.230 -0.3410  0.1160  0.0436
 4822SOL    HW114782   1.748   0.904   2.153 -0.2586 -0.2582  0.1261
 4822SOL    HW214783   1.666   0.818   2.247  0.3241  0.0903  0.9648
 4823SOL     OW14784   1.439   4.686   4.092 -0.4966  0.3723 -0.9355
 4823SOL    HW114785   1.421   4.746   4.164  1.2558  1.6887 -1.5166
 4823SOL    HW214786   1.353   4.662   4.057 -1.4535 -0.9756  2.0597
 4824SOL     OW14787   0.448   1.614   0.774 -0.1083 -0.0865 -0.1406
 4824SOL    HW114788   0.423   1.704   0.796  0.9100 -0.0985  1.1856
 4824SOL    HW214789   0.529   1.623   0.725  0.1968 -0.2869  0.3187
 4825SOL     OW14790   2.038   3.000   4.911  0.3720 -0.4611 -0.6458
 4825SOL    HW114791   1.982   3.055   4.855 -0.2398 -0.9327 -0.5008
 4825SOL    HW214792   2.051   2.920   4.860  0.2381 -0.6841 -0.3263
 4826SOL     OW14793   5.183   1.228   0.224 -0.4933 -0.3083 -0.4545
 4826SOL    HW114794   5.223   1.235   0.138 -0.1210  0.2636 -0.2409
 4826SOL    HW214795   5.110   1.167   0.212 -1.2763  0.7895 -1.4772
 4827SOL     OW14796   3.241   2.179   2.259  0.0383  0.4544 -0.0622
 4827SOL    HW114797   3.183   2.136   2.196 -0.2369  0.9487 -0.1453
 4827SOL    HW214798   3.196   2.260   2.282 -0.2464 -0.0782  1.3525
 4828SOL     OW14799   5.500   3.941   3.830 -0.2859  0.5113  0.1793
 4828SOL    HW114800   5.499   3.853   3.793 -0.7001  0.4987  0.2237
 4828SOL    HW214801   5.588   3.974   3.810 -0.4983  0.5092 -0.8293
 4829SOL     OW14802   3.965   4.897   1.957  0.3326  0.2002  0.1670
 4829SOL    HW114803   3.960   4.992   1.965 -1.9727  0.1393 -0.1236
 4829SOL    HW214804   3.877   4.865   1.978  0.5770 -1.7472 -1.4196
 4830SOL     OW14805   4.099   4.555   0.433 -0.1373  0.9293 -0.2225
 4830SOL    HW114806   4.084   4.533   0.525 -0.9797  3.3316  0.2805
 4830SOL    HW214807   4.185   4.595   0.432  0.3927 -0.1721 -0.7337
 4831SOL     OW14808   0.484   5.339   0.943 -0.0614 -0.5057  0.7623
 4831SOL    HW114809   0.547   5.342   0.871  0.1162 -1.1934  0.8808
 4831SOL    HW214810   0.521   5.398   1.010  1.3450 -2.1621  1.5142
 4832SOL     OW14811   3.912   4.204   2.461  0.5295  0.1982 -0.5252
 4832SOL    HW114812   3.852   4.209   2.535  0.1922  1.5759 -0.8552
 4832SOL    HW214813   3.954   4.119   2.469 -0.7177 -0.3665  0.2997
 4833SOL     OW14814   4.789   5.182   0.261 -0.6172 -0.1409  0.1920
 4833SOL    HW114815   4.761   5.092   0.276  2.0326 -1.2939 -0.9830
 4833SOL    HW214816   4.753   5.204   0.176 -2.8573  0.6959  1.2863
 4834SOL     OW14817   1.912   1.051   2.547  0.2683 -0.0976  0.0760
 4834SOL    HW114818   1.965   1.126   2.521  0.1210  0.4146  1.2105
 4834SOL    HW214819   1.968   0.975   2.530  0.7861  0.3324 -0.1684
 4835SOL     OW14820   1.795   2.903   3.268  0.7017 -0.5192 -0.7983
 4835SOL    HW114821   1.757   2.835   3.324  1.7687 -0.5671 -0.1021
 4835SOL    HW214822   1.800   2.980   3.324 -0.9726  0.3169 -1.7308
 4836SOL     OW14823   3.052   3.234   5.547  0.1466  0.2492  0.5247
 4836SOL    HW114824   3.029   3.170   5.480 -1.3024  0.5891  0.6472
 4836SOL    HW214825   3.126   3.283   5.511  1.0680 -1.2611  0.2940
 4837SOL     OW14826   5.540   0.238   4.702  0.1912 -0.3536  0.6633
 4837SOL    HW114827   5.599   0.183   4.754 -0.3072 -0.1609  1.4615
 4837SOL    HW214828   5.478   0.177   4.663  1.4640 -0.6606 -0.9627
 4838SOL     OW14829   4.075   1.832   2.518 -0.0191  0.6113 -1.0360
 4838SOL    HW114830   4.153   1.848   2.466  0.3526  1.6264 -0.1924
 4838SOL    HW214831   4.014   1.900   2.492 -0.1060  0.6719 -0.6797
 4839SOL     OW14832   3.346   1.385   0.099  0.4592  0.2604 -0.2798
 4839SOL    HW114833   3.394   1.305   0.079  0.8950  0.9191 -2.0327
 4839SOL    HW214834   3.407   1.456   0.080 -0.7107  1.0718 -1.2015
 4840SOL     OW14835   1.512   2.583   4.272  0.3908 -1.0004  0.0819
 4840SOL    HW114836   1.552   2.561   4.356  1.3433 -3.3453 -0.8944
 4840SOL    HW214837   1.568   2.542   4.207 -0.7974  0.0157 -1.6925
 4841SOL     OW14838   1.980   4.104   2.289  0.0625  0.3009  0.1760
 4841SOL    HW114839   1.892   4.072   2.271 -0.4596  1.0577  1.2558
 4841SOL    HW214840   2.030   4.026   2.312 -0.5937 -0.0145  0.5655
 4842SOL     OW14841   3.326   4.339   2.572  0.1747 -0.2154 -0.1551
 4842SOL    HW114842   3.398   4.358   2.632  1.1047 -2.1099 -0.6119
 4842SOL    HW214843   3.268   4.414   2.581  0.8103  0.0771  2.2984
 4843SOL     OW14844   2.321   1.003   4.719 -0.2152 -0.0134  0.2316
 4843SOL    HW114845   2.291   0.985   4.808 -2.2313  1.3179 -0.1146
 4843SOL    HW214846   2.390   1.068   4.728 -1.0609  0.8194  0.7855
 4844SOL     OW14847   0.007   2.950   4.931 -0.1803 -0.2121 -0.6353
 4844SOL    HW114848   0.014   2.895   4.853 -0.0066  0.4741 -1.1149
 4844SOL    HW214849   0.012   3.039   4.898 -0.3495  0.0959  0.1420
 4845SOL     OW14850   3.677   2.331   4.862  0.5537 -0.3254 -0.4930
 4845SOL    HW114851   3.645   2.409   4.908 -0.6666 -0.2941 -1.3531
 4845SOL    HW214852   3.627   2.329   4.781  0.4750 -2.0733 -0.4327
 4846SOL     OW14853   4.212   2.954   3.643  0.0794 -0.1622  0.2116
 4846SOL    HW114854   4.188   3.029   3.588  0.1855  1.3517  2.1081
 4846SOL    HW214855   4.180   2.978   3.730 -1.9945 -3.3830  0.4919
 4847SOL     OW14856   3.479   5.058   4.526  0.3170  0.8569 -0.0878
 4847SOL    HW114857   3.448   5.044   4.616  1.2514 -0.6111  0.0389
 4847SOL    HW214858   3.567   5.018   4.525  0.4342  1.1199 -1.5723
 4848SOL     OW14859   0.685   3.749   4.979 -0.1915 -0.0227 -0.3080
 4848SOL    HW114860   0.771   3.732   5.018 -0.4346 -0.3488  0.0899
 4848SOL    HW214861   0.630   3.678   5.010 -0.4292 -0.2191 -1.1496
 4849SOL     OW14862   0.719   0.232   1.204  0.2059  0.1871 -0.4114
 4849SOL    HW114863   0.666   0.264   1.276  2.5889  0.5934  1.2833
 4849SOL    HW214864   0.760   0.311   1.168  1.6416 -0.3122  0.0428
 4850SOL     OW14865   2.841   3.598   0.777  0.3713 -0.6195  0.8977
 4850SOL    HW114866   2.856   3.650   0.698 -0.2868 -0.5094  0.8427
 4850SOL    HW214867   2.914   3.536   0.778  1.0714  0.1645  0.8588
 4851SOL     OW14868   0.338   3.143   0.903  0.2105 -0.7220 -0.0173
 4851SOL    HW114869   0.396   3.178   0.835 -0.7900 -0.2218 -0.6391
 4851SOL    HW214870   0.283   3.080   0.857  1.1497 -2.2437  0.8458
 4852SOL     OW14871   5.271   5.300   1.204 -0.0732 -0.1884  0.1738
 4852SOL    HW114872   5.319   5.382   1.213  0.7274 -0.3408 -2.0071
 4852SOL    HW214873   5.321   5.237   1.257  0.3188  0.3432  0.4486
 4853SOL     OW14874   1.998   0.775   4.222  0.1924 -0.3596 -0.5794
 4853SOL    HW114875   2.017   0.814   4.137  2.5380  0.5217  0.2567
 4853SOL    HW214876   2.009   0.846   4.285  1.9527 -1.7047  0.7451
 4854SOL     OW14877   1.892   0.475   0.623  0.5247  0.0562  0.2304
 4854SOL    HW114878   1.858   0.536   0.688 -0.2088 -0.7516  0.6292
 4854SOL    HW214879   1.909   0.394   0.672 -2.9398 -1.6233 -0.9644
 4855SOL     OW14880   4.598   4.046   1.837 -0.1275  0.2826 -0.5744
 4855SOL    HW114881   4.648   3.978   1.882 -0.3636  0.5236  0.0556
 4855SOL    HW214882   4.508   4.034   1.866 -0.6558 -0.7887 -2.4681
 4856SOL     OW14883   0.351   2.674   2.460 -0.3736 -0.1102 -0.3164
 4856SOL    HW114884   0.344   2.768   2.476  1.1280 -0.0543  0.1064
 4856SOL    HW214885   0.321   2.663   2.370  0.5443  0.9463 -0.7821
 4857SOL     OW14886   4.311   4.107   5.479 -0.5081  0.0683  0.0313
 4857SOL    HW114887   4.302   4.192   5.436  0.3545  1.4188  2.2980
 4857SOL    HW214888   4.342   4.049   5.410 -4.5264  0.5714 -2.5175
 4858SOL     OW14889   3.535   3.842   5.033 -0.2790 -0.1106 -0.0317
 4858SOL    HW114890   3.556   3.874   4.945 -0.7049  0.7580  0.1661
 4858SOL    HW214891   3.608   3.871   5.087 -1.2986  1.8107  0.4146
 4859SOL     OW14892   0.307   1.123   2.542 -0.4884 -0.0926 -0.4642
 4859SOL    HW114893   0.363   1.193   2.509 -1.1182  2.1989  2.7987
 4859SOL    HW214894   0.219   1.147   2.513 -0.7237  0.6540  0.7730
 4860SOL     OW14895   3.086   3.196   4.512 -0.1019 -0.4484 -0.4766
 4860SOL    HW114896   3.150   3.255   4.551 -1.4268  1.5717 -1.1762
 4860SOL    HW214897   3.137   3.140   4.453  1.1311  0.5112 -0.3554
 4861SOL     OW14898   3.139   2.309   4.457 -0.0130 -0.1991 -0.6636
 4861SOL    HW114899   3.064   2.367   4.451  0.4181  0.4695  0.2232
 4861SOL    HW214900   3.206   2.361   4.500  0.0211 -1.6743  1.1835
 4862SOL     OW14901   1.320   5.273   2.377  0.7431  0.0412  0.2092
 4862SOL    HW114902   1.312   5.361   2.339 -0.1246 -0.4223 -0.7288
 4862SOL    HW214903   1.234   5.234   2.364  1.4628 -1.3714 -0.4883
 4863SOL     OW14904   3.782   1.126   5.036  0.1357  0.3849 -0.5531
 4863SOL    HW114905   3.753   1.035   5.040 -1.0934  0.7843  0.6670
 4863SOL    HW214906   3.845   1.135   5.106 -0.9607  0.8321  0.4134
 4864SOL     OW14907   4.871   2.850   2.108 -0.2483  0.4222  0.4391
 4864SOL    HW114908   4.802   2.787   2.127  0.0574  0.0409  0.3145
 4864SOL    HW214909   4.881   2.900   2.189 -0.0264 -0.1471  0.7683
 4865SOL     OW14910   1.593   1.184   3.622  0.8750  0.0277  0.4731
 4865SOL    HW114911   1.603   1.261   3.678 -1.7445  0.4755  0.4728
 4865SOL    HW214912   1.503   1.155   3.637  0.2948 -0.3361 -2.8327
 4866SOL     OW14913   5.336   3.778   4.249 -0.6985 -0.5059 -0.0004
 4866SOL    HW114914   5.425   3.769   4.214 -0.6932 -0.3296 -0.0311
 4866SOL    HW214915   5.324   3.699   4.303  0.2590  0.4951  1.7572
 4867SOL     OW14916   5.319   3.700   3.903 -0.4525 -0.1255 -0.1705
 4867SOL    HW114917   5.233   3.687   3.864 -0.1716  0.9949 -1.2281
 4867SOL    HW214918   5.380   3.694   3.830  0.3814 -0.7888  0.5441
 4868SOL     OW14919   0.785   3.558   0.627  0.3623  0.2610 -0.0612
 4868SOL    HW114920   0.689   3.552   0.627  0.3549  0.2084  1.2567
 4868SOL    HW214921   0.814   3.470   0.650  0.6961  0.5376  0.5970
 4869SOL     OW14922   4.433   2.277   1.100 -0.4268 -0.2276 -0.6358
 4869SOL    HW114923   4.413   2.184   1.111 -2.4729  0.2403 -0.0162
 4869SOL    HW214924   4.505   2.294   1.160 -1.8820 -0.8392  1.3636
 4870SOL     OW14925   2.074   1.590   5.117 -0.0988  0.1884 -0.3055
 4870SOL    HW114926   2.083   1.556   5.029 -1.2812  0.0412 -0.3931
 4870SOL    HW214927   2.038   1.678   5.105  2.0889  1.1621 -0.0484
 4871SOL     OW14928   3.585   3.922   4.766  0.3421 -0.6100 -0.4462
 4871SOL    HW114929   3.674   3.958   4.763  0.0512  0.2128  0.4293
 4871SOL    HW214930   3.590   3.841   4.714  1.8177 -1.0604  0.3540
 4872SOL     OW14931   0.121   3.292   5.024  0.0050  0.0135 -0.5701
 4872SOL    HW114932   0.096   3.268   5.113  0.8410  1.2728  0.0358
 4872SOL    HW214933   0.203   3.246   5.009  0.2523  0.3940 -0.3984
 4873SOL     OW14934   4.946   1.325   2.944 -0.5432  0.1768  0.4124
 4873SOL    HW114935   4.872   1.267   2.962 -1.5178  1.1441 -0.2910
 4873SOL    HW214936   5.015   1.295   3.002 -1.3886 -0.9659  0.8620
 4874SOL     OW14937   2.863   5.147   3.143 -0.3418  0.1631  0.3430
 4874SOL    HW114938   2.820   5.176   3.062  2.8136  2.9644 -0.5425
 4874SOL    HW214939   2.837   5.056   3.152 -2.6365  0.3734 -2.5601
 4875SOL     OW14940   2.260   3.440   3.134  0.1578  0.2163 -0.4647
 4875SOL    HW114941   2.212   3.516   3.100  1.5819  0.9177 -0.9864
 4875SOL    HW214942   2.280   3.465   3.225  0.7959  0.5608 -0.6958
 4876SOL     OW14943   3.445   3.433   3.341  0.5377  0.5244 -0.3562
 4876SOL    HW114944   3.397   3.515   3.357  0.2097  0.0111  1.5690
 4876SOL    HW214945   3.508   3.428   3.413  0.7927 -0.7413 -0.6433
 4877SOL     OW14946   4.465   0.929   4.955 -0.3147 -0.1940 -0.3461
 4877SOL    HW114947   4.509   0.855   4.912 -0.0341 -0.2511  0.0390
 4877SOL    HW214948   4.516   0.945   5.034  0.7094  1.5540 -1.2948
 4878SOL     OW14949   2.895   1.759   3.637 -0.3264  0.1658  0.0556
 4878SOL    HW114950   2.916   1.849   3.613 -0.4589 -0.4947 -2.8672
 4878SOL    HW214951   2.802   1.761   3.660 -0.5033  0.6844 -0.6710
 4879SOL     OW14952   0.610   3.288   0.336 -0.2708  0.1929  0.1530
 4879SOL    HW114953   0.610   3.370   0.287  1.9584  0.6170  0.7375
 4879SOL    HW214954   0.526   3.288   0.383 -0.5967  1.8120 -0.3571
 4880SOL     OW14955   4.076   4.012   5.279  0.3878  0.7460 -0.0176
 4880SOL    HW114956   4.003   3.955   5.302  0.3577  0.5205 -0.6598
 4880SOL    HW214957   4.151   3.976   5.327  0.2533  0.4975  0.0080
 4881SOL     OW14958   0.762   4.287   5.434 -0.6054 -0.1443 -0.4558
 4881SOL    HW114959   0.768   4.371   5.387  0.7722 -1.4711 -2.8399
 4881SOL    HW214960   0.844   4.281   5.483  0.0914 -0.8145 -1.6607
 4882SOL     OW14961   3.215   3.915   5.344 -0.0109 -0.2978  0.0262
 4882SOL    HW114962   3.122   3.932   5.329  0.1244 -0.3855 -0.9317
 4882SOL    HW214963   3.236   3.967   5.422 -0.4279  1.1922 -0.8171
 4883SOL     OW14964   2.167   5.048   2.017  0.8219  0.3699  0.9447
 4883SOL    HW114965   2.230   4.976   2.011  1.0453  0.5890  0.5652
 4883SOL    HW214966   2.203   5.116   1.960  0.7374  0.8781  1.4849
 4884SOL     OW14967   2.242   3.434   3.445  0.1877  0.1084  0.4017
 4884SOL    HW114968   2.318   3.388   3.410 -0.7912 -0.9921 -0.3397
 4884SOL    HW214969   2.232   3.400   3.534 -0.6245 -1.3022 -0.1914
 4885SOL     OW14970   5.448   0.013   3.125  0.2098 -0.3356 -0.0610
 4885SOL    HW114971   5.411  -0.071   3.100  0.4999 -0.2836 -0.6816
 4885SOL    HW214972   5.542   0.005   3.108  0.4423 -0.3411  1.1533
 4886SOL     OW14973   1.319   4.615   2.617  0.0277 -0.1257 -0.0767
 4886SOL    HW114974   1.356   4.526   2.614  3.0562  0.9046  1.5665
 4886SOL    HW214975   1.320   4.637   2.710 -3.6237  0.6055 -0.0902
 4887SOL     OW14976   0.826   3.482   5.009 -0.3158 -0.1084  0.4009
 4887SOL    HW114977   0.901   3.461   4.954 -0.4588 -0.4069  0.3150
 4887SOL    HW214978   0.755   3.428   4.975 -0.2089 -0.8821  1.3520
 4888SOL     OW14979   3.358   2.738   2.815  0.1433 -0.2755  0.1611
 4888SOL    HW114980   3.405   2.656   2.798  1.2856  0.4943 -0.5921
 4888SOL    HW214981   3.404   2.803   2.761 -1.0915  0.7492  0.2987
 4889SOL     OW14982   2.854   0.153   0.545 -0.0490  0.4031 -0.2397
 4889SOL    HW114983   2.804   0.071   0.552 -0.5269  0.6446 -0.7082
 4889SOL    HW214984   2.914   0.151   0.619 -1.0788  0.3172  0.6325
 4890SOL     OW14985   1.926   3.303   0.138 -0.4960 -0.3519  0.3038
 4890SOL    HW114986   1.992   3.320   0.205 -0.0021 -0.2103 -0.2031
 4890SOL    HW214987   1.846   3.342   0.172 -0.0802  0.3552  0.4956
 4891SOL     OW14988   3.302   4.997   3.720 -0.6128 -0.2028  0.0342
 4891SOL    HW114989   3.281   5.053   3.795 -0.2289 -0.6161  0.4544
 4891SOL    HW214990   3.220   4.993   3.670 -0.5103  1.1582 -0.2924
 4892SOL     OW14991   3.981   3.269   1.838  0.1782  0.0183 -0.0480
 4892SOL    HW114992   3.957   3.310   1.755  1.1738  0.2416 -0.2347
 4892SOL    HW214993   3.935   3.320   1.904 -0.0877  0.2586 -0.4115
 4893SOL     OW14994   4.066   2.097   0.373  0.3314  0.3651 -0.4300
 4893SOL    HW114995   4.032   2.147   0.298  1.4931 -0.5315 -1.6010
 4893SOL    HW214996   4.125   2.157   0.417 -0.9594  1.1661  0.2664
 4894SOL     OW14997   4.547   3.476   1.593 -0.5089 -0.3087 -0.1695
 4894SOL    HW114998   4.614   3.426   1.639  1.3035  0.2497 -2.0319
 4894SOL    HW214999   4.465   3.429   1.610  0.4794 -1.5412  1.4332
 4895SOL     OW15000   0.516   0.120   3.263  0.0075 -0.5403  0.5437
 4895SOL    HW115001   0.532   0.099   3.355  2.5354 -1.5250 -0.0338
 4895SOL    HW215002   0.532   0.214   3.258  1.6459 -0.7720  0.8355
 4896SOL     OW15003   4.114   2.940   0.029 -0.5447 -1.0575  0.3883
 4896SOL    HW115004   4.105   2.881   0.104 -1.1649 -3.5713 -1.5469
 4896SOL    HW215005   4.201   2.921  -0.007 -1.2630 -1.8205 -1.0252
 4897SOL     OW15006   2.711   3.571   4.349  0.4056  0.2266 -0.2734
 4897SOL    HW115007   2.719   3.504   4.281 -1.6987  0.1873 -0.5294
 4897SOL    HW215008   2.644   3.537   4.408 -0.6105  2.0464 -0.3276
 4898SOL     OW15009   4.719   3.033   1.991 -0.0132  0.4192 -0.1910
 4898SOL    HW115010   4.803   2.990   2.005  0.0576  1.0177  1.4796
 4898SOL    HW215011   4.719   3.106   2.054 -1.6496  0.6036 -0.3648
 4899SOL     OW15012   4.275   0.619   0.681  0.3346 -0.1178  0.0187
 4899SOL    HW115013   4.334   0.639   0.608  0.0447  0.3343 -0.0923
 4899SOL    HW215014   4.302   0.531   0.710  1.3754  0.2710  0.2766
 4900SOL     OW15015   3.034   4.002   2.816 -0.0744 -0.5678 -0.5807
 4900SOL    HW115016   2.961   3.993   2.877  0.6254 -1.4625  0.1590
 4900SOL    HW215017   3.064   4.092   2.828  1.3461 -1.2716  1.9903
 4901SOL     OW15018   1.445   4.373   4.554  0.5852  0.0694  0.3396
 4901SOL    HW115019   1.418   4.460   4.525 -2.1322 -1.1016 -0.9978
 4901SOL    HW215020   1.366   4.319   4.547  2.0370 -2.4194  1.5618
 4902SOL     OW15021   4.231   2.317   2.941 -0.0327 -0.5451  0.1153
 4902SOL    HW115022   4.222   2.240   2.998 -0.5275  0.7385  1.8636
 4902SOL    HW215023   4.201   2.287   2.856 -1.2580 -2.0274  1.0083
 4903SOL     OW15024   0.684   4.252   3.313 -0.3979 -0.2878  0.0171
 4903SOL    HW115025   0.743   4.297   3.373 -0.8993 -0.6859  0.8277
 4903SOL    HW215026   0.604   4.306   3.312 -0.5031 -0.4425 -0.0639
 4904SOL     OW15027   4.265   1.639   3.063 -0.3198  0.1208 -0.2924
 4904SOL    HW115028   4.329   1.572   3.088 -1.3184 -0.6990  0.1521
 4904SOL    HW215029   4.199   1.591   3.013 -0.8444  0.8575 -0.3245
 4905SOL     OW15030   1.716   2.302   1.416 -0.0445 -0.0674  0.6452
 4905SOL    HW115031   1.796   2.326   1.462  0.2037  0.9831 -0.2674
 4905SOL    HW215032   1.647   2.348   1.464  0.3219  1.8405 -0.5207
 4906SOL     OW15033   3.734   3.360   5.113 -0.7552  0.2815 -0.3078
 4906SOL    HW115034   3.663   3.417   5.083 -1.1629 -1.0992 -2.1987
 4906SOL    HW215035   3.726   3.282   5.058  1.2077 -0.6169  0.5949
 4907SOL     OW15036   2.720   2.073   2.812 -0.6328  0.0281  0.0757
 4907SOL    HW115037   2.732   2.131   2.887 -0.9515  0.4106 -0.1642
 4907SOL    HW215038   2.740   1.985   2.845 -0.5217  0.2288  0.5386
 4908SOL     OW15039   4.419   5.364   5.193 -0.2770  0.1854 -0.1273
 4908SOL    HW115040   4.417   5.439   5.134 -2.4196  1.7382  1.7325
 4908SOL    HW215041   4.343   5.311   5.167 -0.5039  0.2333  0.4212
 4909SOL     OW15042   3.822   0.800   4.942  0.2676 -0.2654 -0.2008
 4909SOL    HW115043   3.841   0.838   4.857  1.7445  0.8348  0.5813
 4909SOL    HW215044   3.727   0.810   4.953 -0.1389 -1.5187 -2.1909
 4910SOL     OW15045   4.447   3.712   0.908  0.7216  0.2193  0.4868
 4910SOL    HW115046   4.419   3.790   0.861  1.7280  0.6103  0.5166
 4910SOL    HW215047   4.373   3.651   0.900  0.5279  0.6114 -0.8197
 4911SOL     OW15048   1.958   5.476   2.271  0.0274 -0.1833  0.1540
 4911SOL    HW115049   2.003   5.439   2.195 -0.8551 -0.2238 -0.3633
 4911SOL    HW215050   2.029   5.505   2.328  0.7420  1.0078 -1.2493
 4912SOL     OW15051   0.251   1.889   4.853 -0.1145  1.0424 -0.5079
 4912SOL    HW115052   0.190   1.816   4.839  0.2722  0.6117 -0.0141
 4912SOL    HW215053   0.337   1.849   4.843  0.1371  1.1340  1.0401
 4913SOL     OW15054   4.427   4.841   4.231  0.4072 -0.5364  0.0252
 4913SOL    HW115055   4.499   4.853   4.293 -1.6219  0.6139  2.3362
 4913SOL    HW215056   4.362   4.791   4.279 -0.7590 -0.6944 -1.6452
 4914SOL     OW15057   3.137   1.837   2.232  0.1568 -0.0042  0.2894
 4914SOL    HW115058   3.150   1.901   2.162 -0.4628 -0.3799 -0.1767
 4914SOL    HW215059   3.078   1.881   2.294 -0.9336 -0.3949 -0.4321
 4915SOL     OW15060   1.640   4.566   0.933  0.4209 -0.6533  0.6201
 4915SOL    HW115061   1.564   4.511   0.915 -1.2814  0.6181  3.3198
 4915SOL    HW215062   1.618   4.652   0.897  1.4049 -0.6990 -0.1529
 4916SOL     OW15063   4.171   1.443   3.658  0.5105 -0.0856  0.1519
 4916SOL    HW115064   4.208   1.531   3.662 -1.1255  0.6477  0.0006
 4916SOL    HW215065   4.103   1.442   3.725  1.0251 -1.5200  0.7109
 4917SOL     OW15066   3.187   3.459   4.893  0.2221 -0.4158  0.2672
 4917SOL    HW115067   3.177   3.545   4.854  0.2516 -0.0991  0.9544
 4917SOL    HW215068   3.274   3.430   4.865  1.2170  0.7774  1.9309
 4918SOL     OW15069   0.370   5.399   4.889  0.0458 -0.2384 -0.0042
 4918SOL    HW115070   0.329   5.319   4.924  0.7841 -0.1665  1.0681
 4918SOL    HW215071   0.298   5.463   4.886 -0.6944 -1.0895 -1.4533
 4919SOL     OW15072   0.321   0.650   3.156  0.3514  0.2285  0.5079
 4919SOL    HW115073   0.275   0.631   3.075 -1.8145  1.3705  1.3836
 4919SOL    HW215074   0.305   0.573   3.211 -1.4386  1.0088  1.1494
 4920SOL     OW15075   3.130   3.794   0.900  0.3646 -0.4573  0.3091
 4920SOL    HW115076   3.064   3.822   0.963  0.5492 -0.3672  0.4638
 4920SOL    HW215077   3.083   3.786   0.817 -0.1014 -1.5193  0.6476
 4921SOL     OW15078   1.039   3.303   2.587  0.5014  0.3133  0.4762
 4921SOL    HW115079   1.038   3.396   2.563  0.0986  0.4516  1.0144
 4921SOL    HW215080   1.132   3.283   2.601  0.6703  0.4179 -0.4494
 4922SOL     OW15081   4.058   0.778   4.388 -0.0398 -0.5527  0.6043
 4922SOL    HW115082   3.968   0.769   4.358  0.0522 -0.8368  0.4131
 4922SOL    HW215083   4.083   0.690   4.415  0.6080 -0.7456 -0.5534
 4923SOL     OW15084   3.670   2.368   1.025  0.7276  0.0375  0.0794
 4923SOL    HW115085   3.639   2.277   1.024 -0.4707  0.4342 -0.1759
 4923SOL    HW215086   3.707   2.382   0.938 -2.4588  0.8706 -1.2881
 4924SOL     OW15087   3.639   5.112   0.101  0.8391  0.0124 -0.1482
 4924SOL    HW115088   3.635   5.030   0.051 -1.9168 -1.1200  1.6418
 4924SOL    HW215089   3.595   5.091   0.183  0.4806  3.1982  0.5973
 4925SOL     OW15090   2.849   2.954   4.860  0.1942  0.0531 -0.0158
 4925SOL    HW115091   2.822   3.016   4.928  0.1259 -0.5056  0.4768
 4925SOL    HW215092   2.944   2.949   4.868  0.1760 -0.0977  0.1193
 4926SOL     OW15093   0.124   2.756   5.086 -0.1802 -0.0713  0.1105
 4926SOL    HW115094   0.075   2.820   5.035  2.2519  0.7453 -1.3982
 4926SOL    HW215095   0.162   2.808   5.157  0.3967 -0.1735 -0.1184
 4927SOL     OW15096   2.833   3.797   1.349 -0.3613 -0.7194 -0.0399
 4927SOL    HW115097   2.777   3.871   1.372 -0.7485 -1.1856  0.5714
 4927SOL    HW215098   2.860   3.761   1.433  0.5949 -0.7043 -0.3331
 4928SOL     OW15099   5.492   0.957   3.060 -0.4062 -0.1998  0.0327
 4928SOL    HW115100   5.421   1.020   3.066 -0.3779 -0.1268 -0.3650
 4928SOL    HW215101   5.545   0.988   2.986 -0.1561 -0.4466  0.1076
 4929SOL     OW15102   5.548   2.835   4.667 -0.0441 -0.1644  0.2668
 4929SOL    HW115103   5.544   2.903   4.599 -1.6061 -0.6318 -0.1561
 4929SOL    HW215104   5.548   2.753   4.618 -1.2082 -0.5095  0.8047
 4930SOL     OW15105   4.694   3.198   4.380  0.4354 -0.4847  0.1294
 4930SOL    HW115106   4.682   3.219   4.287 -0.8495 -0.0965  0.3599
 4930SOL    HW215107   4.679   3.104   4.385  1.9602 -0.7750 -0.2572
 4931SOL     OW15108   0.327   3.712   4.321 -0.1708  0.2944 -0.8059
 4931SOL    HW115109   0.337   3.745   4.410  0.3411  1.2160 -1.1981
 4931SOL    HW215110   0.286   3.626   4.332  0.3271  0.1919  0.3366
 4932SOL     OW15111   0.580   2.840   2.572  0.1187  0.2461  0.3480
 4932SOL    HW115112   0.576   2.917   2.515 -0.2920 -0.5762 -0.7884
 4932SOL    HW215113   0.671   2.834   2.599  0.8030 -0.5050 -1.9347
 4933SOL     OW15114   3.218   4.708   3.252 -0.2959  0.1214 -0.1556
 4933SOL    HW115115   3.229   4.802   3.269 -1.9665  0.5579 -1.2165
 4933SOL    HW215116   3.307   4.672   3.252  0.3381  1.6202  0.7066
 4934SOL     OW15117   4.555   1.260   5.453  0.2552 -0.0074 -0.2803
 4934SOL    HW115118   4.494   1.200   5.496  0.2051  0.1951 -0.0708
 4934SOL    HW215119   4.499   1.321   5.405  0.2948 -1.7016 -2.7127
 4935SOL     OW15120   3.761   2.437   2.043 -0.1265  0.2951 -0.0174
 4935SOL    HW115121   3.841   2.397   2.077 -1.4585 -2.6145  0.0096
 4935SOL    HW215122   3.760   2.413   1.951  0.0458  2.1830 -0.5463
 4936SOL     OW15123   0.676   4.193   0.443  0.0398 -0.1013 -0.3514
 4936SOL    HW115124   0.615   4.259   0.478 -0.7425 -0.2165 -1.4460
 4936SOL    HW215125   0.757   4.241   0.428  0.2508  0.0652  1.0906
 4937SOL     OW15126   5.062   2.979   4.978  0.2364 -0.1648  0.2197
 4937SOL    HW115127   4.992   3.042   4.963 -0.7843 -1.0430  1.0448
 4937SOL    HW215128   5.036   2.934   5.059  1.9855 -0.2213  0.7827
 4938SOL     OW15129   3.911   0.504   4.945  0.1808 -0.2742  0.7139
 4938SOL    HW115130   3.886   0.596   4.960  1.6148  0.1327  0.7788
 4938SOL    HW215131   3.975   0.508   4.874 -1.8195 -1.5467 -1.2850
 4939SOL     OW15132   1.825   1.795   5.468  0.2040 -0.4446  0.6635
 4939SOL    HW115133   1.736   1.800   5.432  1.4477  0.8043 -2.6727
 4939SOL    HW215134   1.817   1.830   5.556 -2.4684  0.4967  0.1502
 4940SOL     OW15135   2.681   1.488   0.966  0.0332 -1.0037 -0.4018
 4940SOL    HW115136   2.645   1.576   0.969  1.3153 -0.4808  0.4190
 4940SOL    HW215137   2.682   1.466   0.873  3.3518  1.4840 -1.1801
 4941SOL     OW15138   0.370   2.117   2.545 -0.1681  0.1193 -0.6872
 4941SOL    HW115139   0.346   2.207   2.524 -0.9792  0.4655  1.4693
 4941SOL    HW215140   0.287   2.069   2.546  0.1513 -0.4475 -0.9099
 4942SOL     OW15141   4.664   4.490   1.370  0.4293 -0.4349  0.3742
 4942SOL    HW115142   4.632   4.489   1.280 -1.3128 -0.0188  0.9396
 4942SOL    HW215143   4.656   4.399   1.400 -0.8407 -0.2464  0.6774
 4943SOL     OW15144   4.352   3.370   4.083 -0.1552  0.1065 -0.0754
 4943SOL    HW115145   4.292   3.311   4.128  2.1659 -1.4119  1.2739
 4943SOL    HW215146   4.360   3.334   3.995 -0.0808 -0.5976  0.2089
 4944SOL     OW15147   1.162   5.136   2.124 -0.2072  0.1799 -0.0065
 4944SOL    HW115148   1.102   5.109   2.054  1.3609 -0.6459 -1.0767
 4944SOL    HW215149   1.211   5.057   2.146  0.6447  0.8830  0.7138
 4945SOL     OW15150   3.533   0.915   3.518 -0.0827  0.3687  0.0260
 4945SOL    HW115151   3.597   0.938   3.450 -0.0654  0.3605  0.0396
 4945SOL    HW215152   3.453   0.895   3.469  0.2961 -0.9576 -0.0956
 4946SOL     OW15153   1.312   0.528   1.042  0.1270 -0.2440 -0.5089
 4946SOL    HW115154   1.276   0.439   1.037 -0.5583 -0.0276  0.3407
 4946SOL    HW215155   1.393   0.520   1.092 -1.2200 -0.0548  1.8341
 4947SOL     OW15156   0.547   4.196   4.676 -0.0535 -0.0383 -0.5189
 4947SOL    HW115157   0.619   4.138   4.702 -0.3723 -0.6134 -0.8920
 4947SOL    HW215158   0.536   4.256   4.750  1.7581  1.0047 -1.0319
 4948SOL     OW15159   4.679   2.554   3.539  0.0044 -0.3078 -0.7343
 4948SOL    HW115160   4.692   2.626   3.601 -1.6104 -0.0727 -0.6368
 4948SOL    HW215161   4.617   2.588   3.474  0.1597 -1.2080 -1.3875
 4949SOL     OW15162   3.527   2.300   2.891  0.0941 -1.0476  0.0841
 4949SOL    HW115163   3.572   2.378   2.923  1.1905 -0.9986 -1.4865
 4949SOL    HW215164   3.512   2.317   2.798 -3.1971 -1.0871  0.4702
 4950SOL     OW15165   2.087   1.894   1.702 -0.3873  0.2919  0.3533
 4950SOL    HW115166   2.067   1.963   1.765  0.0330  1.3276 -0.6115
 4950SOL    HW215167   2.074   1.812   1.751 -1.7044  1.0191  1.2743
 4951SOL     OW15168   3.852   3.325   1.106 -0.2557  0.0390 -0.2788
 4951SOL    HW115169   3.806   3.260   1.054  0.6353  0.6142 -1.8562
 4951SOL    HW215170   3.785   3.364   1.161 -1.2169 -0.6557 -0.9255
 4952SOL     OW15171   1.578   4.553   2.918 -0.2527  0.0376  0.1770
 4952SOL    HW115172   1.633   4.577   2.992 -1.6371 -0.0953  1.2833
 4952SOL    HW215173   1.614   4.470   2.887  1.9526  1.3336 -1.0175
 4953SOL     OW15174   1.175   1.763   3.765 -0.1012 -0.2015  0.9220
 4953SOL    HW115175   1.206   1.683   3.808  0.4535 -0.8226 -0.5464
 4953SOL    HW215176   1.101   1.791   3.818  1.2346 -0.2587  2.9158
 4954SOL     OW15177   0.170   3.771   5.328 -0.0367 -0.2965 -0.2245
 4954SOL    HW115178   0.117   3.785   5.250 -0.0167 -1.2844 -0.4307
 4954SOL    HW215179   0.106   3.752   5.397 -0.0816  1.0135  0.1189
 4955SOL     OW15180   4.864   3.014   3.774  0.0720 -0.0655  0.0273
 4955SOL    HW115181   4.855   2.998   3.868 -0.4176  0.4609  0.0728
 4955SOL    HW215182   4.818   3.096   3.759  0.1474 -0.1463 -0.6760
 4956SOL     OW15183   3.772   5.149   5.053  0.0697  0.7817 -0.1999
 4956SOL    HW115184   3.739   5.108   5.132 -0.5437  0.1853 -0.7472
 4956SOL    HW215185   3.829   5.220   5.083 -0.8533  1.1352  0.7684
 4957SOL     OW15186   2.976   0.765   5.473  0.3511  0.4196 -0.0493
 4957SOL    HW115187   3.030   0.844   5.480  1.5580 -0.4540  0.9216
 4957SOL    HW215188   3.021   0.700   5.528 -0.9227 -0.7750 -0.3661
 4958SOL     OW15189   3.834   1.413   1.716  0.0568  0.1562 -0.2330
 4958SOL    HW115190   3.846   1.400   1.621 -1.3662 -1.3079 -0.2605
 4958SOL    HW215191   3.823   1.507   1.726 -0.5576  0.2658 -1.6541
 4959SOL     OW15192   4.136   1.066   0.878  0.4552  0.0669 -0.5568
 4959SOL    HW115193   4.164   1.153   0.850  1.0586  0.8059  2.1404
 4959SOL    HW215194   4.053   1.052   0.831  0.3956  2.0222 -1.1320
 4960SOL     OW15195   3.609   3.074   2.502 -0.0717  0.4521  0.4715
 4960SOL    HW115196   3.676   3.006   2.491 -0.9231 -0.4236  0.5715
 4960SOL    HW215197   3.544   3.035   2.560 -2.3814 -0.0168 -2.2353
 4961SOL     OW15198   5.515   5.505   1.597 -0.0456  0.4527  0.4044
 4961SOL    HW115199   5.494   5.517   1.690  0.5951  2.3063  0.3633
 4961SOL    HW215200   5.583   5.571   1.580  0.5210 -0.4951 -1.1618
 4962SOL     OW15201   1.099   2.775   1.553  0.1891  0.6175 -0.2572
 4962SOL    HW115202   1.056   2.845   1.504 -1.0393 -0.2310 -0.4161
 4962SOL    HW215203   1.028   2.728   1.597  1.0492 -0.1526  0.3624
 4963SOL     OW15204   3.294   2.670   0.331  0.8702  0.2462 -0.9136
 4963SOL    HW115205   3.272   2.581   0.357 -0.1126  0.0634 -2.2519
 4963SOL    HW215206   3.246   2.726   0.391  0.6256 -0.1347 -0.7519
 4964SOL     OW15207   4.892   2.380   0.508  0.0465 -0.0339 -0.5346
 4964SOL    HW115208   4.956   2.313   0.484 -0.3526 -0.2365 -1.0336
 4964SOL    HW215209   4.851   2.347   0.587  0.2037 -0.1387 -0.4964
 4965SOL     OW15210   3.836   1.028   2.182  0.3910 -0.0565  0.2877
 4965SOL    HW115211   3.811   1.050   2.271 -2.5301 -1.6399 -0.0039
 4965SOL    HW215212   3.795   1.095   2.128 -2.6642 -2.0236 -0.1107
 4966SOL     OW15213   2.839   5.303   2.013  0.2974  0.3363 -0.4431
 4966SOL    HW115214   2.887   5.322   2.094  0.1598  0.1052 -0.3063
 4966SOL    HW215215   2.779   5.376   2.003 -1.2393 -0.7037  0.8489
 4967SOL     OW15216   4.631   5.210   1.540  1.1573  0.2536 -0.1397
 4967SOL    HW115217   4.569   5.160   1.594  1.6687  0.4577  0.6529
 4967SOL    HW215218   4.700   5.147   1.521  2.0713  0.7687  1.3098
 4968SOL     OW15219   3.534   5.104   3.970  0.0044  0.2238 -0.2371
 4968SOL    HW115220   3.592   5.083   4.043 -1.2410  1.5649  1.2229
 4968SOL    HW215221   3.591   5.142   3.903  0.7879  2.1809  1.4318
 4969SOL     OW15222   2.101   3.663   0.653 -0.3864  0.2815 -0.1748
 4969SOL    HW115223   2.042   3.687   0.582  0.9947  1.9561 -0.7930
 4969SOL    HW215224   2.151   3.589   0.619 -0.6704  0.2025 -0.4241
 4970SOL     OW15225   3.984   4.729   4.331  0.1133 -0.5150  0.3690
 4970SOL    HW115226   3.938   4.710   4.413 -0.8314 -1.1022 -0.2873
 4970SOL    HW215227   4.071   4.690   4.342 -0.4078 -1.6281  0.6379
 4971SOL     OW15228   1.712   3.969   0.955 -0.7339 -0.2570  0.2125
 4971SOL    HW115229   1.794   3.989   1.002  0.3429  1.0268 -2.0217
 4971SOL    HW215230   1.643   4.002   1.012  0.5441  1.7883  0.6996
 4972SOL     OW15231   1.063   0.712   1.885 -0.2917  0.3686 -0.1398
 4972SOL    HW115232   1.131   0.746   1.943  0.2836  0.0729 -0.6273
 4972SOL    HW215233   1.051   0.781   1.819 -2.3517  1.5841  1.3951
 4973SOL     OW15234   1.690   2.892   1.182  0.0689 -0.1942 -0.6387
 4973SOL    HW115235   1.752   2.846   1.126 -0.7280 -0.7102 -1.1117
 4973SOL    HW215236   1.742   2.961   1.224  0.6876  0.1988 -1.9950
 4974SOL     OW15237   2.867   2.905   2.696 -0.2951 -0.1536 -0.2325
 4974SOL    HW115238   2.780   2.942   2.711 -0.5187 -0.8716  0.2946
 4974SOL    HW215239   2.901   2.890   2.785  0.2371 -0.1761 -0.4397
 4975SOL     OW15240   2.208   5.560   5.033  0.5368  0.1276 -0.3141
 4975SOL    HW115241   2.301   5.538   5.042  0.7139  0.4571 -1.2278
 4975SOL    HW215242   2.166   5.514   5.105  1.3004 -0.7363 -0.3910
 4976SOL     OW15243   2.472   1.671   2.742 -0.0541  0.1812 -0.0854
 4976SOL    HW115244   2.416   1.732   2.695 -0.7483  0.2247  0.7843
 4976SOL    HW215245   2.494   1.716   2.824 -1.4087 -1.0865  1.0432
 4977SOL     OW15246   0.993   4.629   0.451 -0.1050  0.1424  0.3383
 4977SOL    HW115247   1.073   4.650   0.499  0.3798 -1.3886  0.2598
 4977SOL    HW215248   0.996   4.534   0.439 -0.9000  0.2904 -1.4898
 4978SOL     OW15249   0.850   0.334   1.879 -0.9834 -0.3320 -0.0009
 4978SOL    HW115250   0.770   0.381   1.902 -0.0245  1.2273  0.2937
 4978SOL    HW215251   0.897   0.393   1.820  0.5179 -0.6780  0.7930
 4979SOL     OW15252   1.695   3.033   1.742  0.4708  0.2993  0.2561
 4979SOL    HW115253   1.674   2.943   1.767  1.7996  0.7039  3.2581
 4979SOL    HW215254   1.783   3.027   1.704 -0.2279  0.1146 -1.3817
 4980SOL     OW15255   3.439   2.890   0.019 -0.4270  0.2484 -0.3915
 4980SOL    HW115256   3.399   2.837  -0.049 -0.2717  0.6177 -0.7750
 4980SOL    HW215257   3.430   2.980  -0.012 -0.8857  0.4679  0.3506
 4981SOL     OW15258   2.331   1.131   1.082  0.0678 -0.0982  0.2522
 4981SOL    HW115259   2.277   1.209   1.099 -0.6156 -0.9591  2.2770
 4981SOL    HW215260   2.421   1.162   1.092 -0.1748  0.5320  0.5548
 4982SOL     OW15261   2.549   1.144   4.168 -0.0620 -0.5921 -0.0637
 4982SOL    HW115262   2.520   1.054   4.154  0.3116 -0.4162 -2.2508
 4982SOL    HW215263   2.470   1.192   4.191 -0.6886 -1.0298 -1.2664
 4983SOL     OW15264   5.101   0.535   1.898 -0.1427 -0.0811 -0.9302
 4983SOL    HW115265   5.153   0.464   1.937 -0.5400 -1.3372 -2.5822
 4983SOL    HW215266   5.011   0.502   1.900 -0.3674  0.4982 -1.4891
 4984SOL     OW15267   1.667   2.275   2.052 -0.1464  0.5502  0.4997
 4984SOL    HW115268   1.590   2.315   2.093 -0.1690 -0.2260  1.2479
 4984SOL    HW215269   1.711   2.230   2.124  0.9468  0.8842  0.0526
 4985SOL     OW15270   3.662   5.236   1.080  0.6025  0.1006 -0.4333
 4985SOL    HW115271   3.653   5.316   1.131 -0.5014 -0.8235  0.8850
 4985SOL    HW215272   3.757   5.225   1.071  0.8129  0.6870  0.7830
 4986SOL     OW15273   1.139   5.074   5.501  0.5663  0.3019 -0.3808
 4986SOL    HW115274   1.143   5.166   5.479 -2.5134  0.5656 -0.3190
 4986SOL    HW215275   1.178   5.068   5.588 -0.5886  1.8815  0.2934
 4987SOL     OW15276   3.606   5.544   4.221 -0.1343  0.6317  0.7683
 4987SOL    HW115277   3.688   5.591   4.210  0.2935 -0.2907 -0.1721
 4987SOL    HW215278   3.580   5.519   4.132 -1.0510  0.2851  1.1190
 4988SOL     OW15279   3.047   1.891   4.395 -0.4210 -0.5389 -0.0100
 4988SOL    HW115280   2.994   1.819   4.361  0.0607  0.0087 -2.0592
 4988SOL    HW215281   3.064   1.946   4.319  1.6745  0.2010  0.9238
 4989SOL     OW15282   1.519   1.767   5.408 -0.2724 -0.1305  0.4160
 4989SOL    HW115283   1.447   1.822   5.439  0.3913  1.2843 -0.4377
 4989SOL    HW215284   1.485   1.724   5.330 -0.4937 -0.1841  0.5417
 4990SOL     OW15285   5.445   2.956   2.977 -0.4159 -0.4210  0.2617
 4990SOL    HW115286   5.511   2.965   3.045 -0.1291 -1.4969  0.1525
 4990SOL    HW215287   5.459   2.868   2.942 -1.0056 -0.1439 -0.7146
 4991SOL     OW15288   1.509   4.912   5.273  0.3903  0.4371 -0.7070
 4991SOL    HW115289   1.501   4.859   5.353  0.9736  0.3959 -0.6649
 4991SOL    HW215290   1.495   5.002   5.302 -0.4604  0.3241 -0.7516
 4992SOL     OW15291   1.262   2.327   4.716 -0.2540 -0.1186 -0.2992
 4992SOL    HW115292   1.294   2.323   4.806 -0.8792 -0.8831 -0.0892
 4992SOL    HW215293   1.336   2.300   4.662  0.0593  0.1305  0.0055
 4993SOL     OW15294   5.463   3.427   0.187 -0.4978 -0.9039  0.0275
 4993SOL    HW115295   5.552   3.411   0.216 -0.8685 -1.3539  0.9445
 4993SOL    HW215296   5.436   3.506   0.234 -0.1516  0.0069 -1.2402
 4994SOL     OW15297   0.238   0.453   3.723 -0.1555 -0.6632 -0.1752
 4994SOL    HW115298   0.189   0.504   3.659 -0.3247 -1.5242 -0.7441
 4994SOL    HW215299   0.196   0.367   3.723 -0.9372 -0.3336  1.9941
 4995SOL     OW15300   2.582   4.124   4.229  0.0890  0.7221 -0.0003
 4995SOL    HW115301   2.536   4.047   4.195  0.6306 -0.2864  1.4225
 4995SOL    HW215302   2.637   4.154   4.157 -0.0890 -0.2690 -0.5621
 4996SOL     OW15303   4.624   4.313   1.730  0.2733  0.3442  0.0554
 4996SOL    HW115304   4.592   4.235   1.775 -0.3691 -0.3135 -1.4661
 4996SOL    HW215305   4.576   4.385   1.769  1.6809  0.1776  2.2739
 4997SOL     OW15306   1.096   4.265   5.362  0.1068 -0.0793 -0.3765
 4997SOL    HW115307   1.053   4.244   5.445  0.4744 -2.9280 -0.8079
 4997SOL    HW215308   1.140   4.348   5.378  1.1743 -1.1151  2.7322
 4998SOL     OW15309   2.786   5.384   5.300 -0.4627  0.4876 -0.0903
 4998SOL    HW115310   2.868   5.341   5.323 -0.5610 -0.6763 -1.7281
 4998SOL    HW215311   2.727   5.366   5.373  0.0923 -0.5131  0.1217
 4999SOL     OW15312   0.128   3.632   2.486  0.0504  0.1109 -0.6371
 4999SOL    HW115313   0.109   3.614   2.578  0.5806 -0.2203 -0.5870
 4999SOL    HW215314   0.174   3.716   2.488  0.5345 -0.1518 -0.5430
 5000SOL     OW15315   5.557   1.076   0.502 -0.0691  0.4148 -0.6927
 5000SOL    HW115316   5.492   1.009   0.520 -0.4327  0.8729 -0.2734
 5000SOL    HW215317   5.614   1.038   0.435 -0.8057  0.0354 -1.1102
 5001SOL     OW15318   2.360   3.447   5.036 -0.6966  0.5196  0.1241
 5001SOL    HW115319   2.267   3.428   5.021 -0.3343  0.1131 -1.9235
 5001SOL    HW215320   2.406   3.370   5.003  0.4287  1.1386  0.1948
 5002SOL     OW15321   0.824   1.200   0.835  0.1953  0.0489 -0.1939
 5002SOL    HW115322   0.752   1.231   0.890  0.0096 -0.8230  0.0744
 5002SOL    HW215323   0.849   1.116   0.873  0.7837 -0.0591 -0.7995
 5003SOL     OW15324   5.497   4.405   3.512 -0.0399 -0.3043  0.6465
 5003SOL    HW115325   5.419   4.449   3.479 -0.2959 -0.2404  1.3099
 5003SOL    HW215326   5.544   4.473   3.560  0.5689 -0.2744  0.0187
 5004SOL     OW15327   3.393   3.436   2.096  0.1967  0.4813  0.3207
 5004SOL    HW115328   3.442   3.480   2.026 -1.1703  0.5231 -0.6498
 5004SOL    HW215329   3.411   3.489   2.174 -0.3879  2.0536 -0.5564
 5005SOL     OW15330   2.785   2.971   3.556  0.1977 -0.1649 -1.3203
 5005SOL    HW115331   2.790   3.016   3.472 -1.8369 -1.4934 -2.2324
 5005SOL    HW215332   2.692   2.973   3.579  0.9161  2.0743  2.0575
 5006SOL     OW15333   5.358   2.918   5.095  0.0875 -0.0688 -0.1809
 5006SOL    HW115334   5.438   2.929   5.043  0.4287  0.1998  0.3821
 5006SOL    HW215335   5.300   2.987   5.065 -0.4025 -0.9949 -1.4272
 5007SOL     OW15336   4.537   1.389   2.123 -0.3817 -0.0023  0.2571
 5007SOL    HW115337   4.468   1.410   2.186  0.3946 -1.9605  1.9109
 5007SOL    HW215338   4.512   1.304   2.088  0.4176 -0.0237 -0.2815
 5008SOL     OW15339   2.495   5.481   5.093  0.1464  0.7733  0.7438
 5008SOL    HW115340   2.554   5.488   5.018 -1.6726  2.4247 -0.6279
 5008SOL    HW215341   2.492   5.387   5.113  2.2182  0.5220  0.0728
 5009SOL     OW15342   2.622   2.876   4.463 -0.8713  0.0735 -0.1690
 5009SOL    HW115343   2.654   2.851   4.549 -0.4016 -0.3262 -0.4561
 5009SOL    HW215344   2.627   2.971   4.462 -0.2694  0.0454  0.0101
 5010SOL     OW15345   3.101   2.418   3.210 -0.2493  0.1554 -0.0407
 5010SOL    HW115346   3.194   2.418   3.189  0.0093 -0.3809  1.0221
 5010SOL    HW215347   3.097   2.434   3.304 -1.2374  0.2619 -0.0863
 5011SOL     OW15348   2.132   4.679   2.131 -0.0431  0.1935 -0.4750
 5011SOL    HW115349   2.198   4.694   2.199 -1.5627 -0.7442  1.2976
 5011SOL    HW215350   2.049   4.703   2.172 -1.1208 -1.2451 -1.6729
 5012SOL     OW15351   0.283   4.878   4.578 -0.5502  0.1880  0.1421
 5012SOL    HW115352   0.252   4.865   4.489 -0.5558  1.4139 -0.0572
 5012SOL    HW215353   0.227   4.822   4.632 -1.9530  1.0062 -0.4062
 5013SOL     OW15354   3.365   1.237   1.993 -0.5766 -0.3200 -0.1118
 5013SOL    HW115355   3.366   1.160   2.050  0.6049 -0.2147  0.0264
 5013SOL    HW215356   3.301   1.296   2.033 -1.2401 -1.0702 -0.0287
 5014SOL     OW15357   3.525   2.770   3.961 -0.2133 -0.0142  0.1508
 5014SOL    HW115358   3.579   2.790   4.038 -0.5754 -0.0570  0.4210
 5014SOL    HW215359   3.570   2.698   3.918 -1.2033 -1.5485  1.5831
 5015SOL     OW15360   1.959   4.830   2.305 -0.0402  0.3792  0.3643
 5015SOL    HW115361   1.999   4.794   2.384  0.7139  0.5610  0.0737
 5015SOL    HW215362   1.949   4.923   2.323  0.0808  0.4115  0.2589
 5016SOL     OW15363   3.771   1.849   5.556  0.0874  0.2433  0.1635
 5016SOL    HW115364   3.840   1.908   5.588 -0.7557  0.2129  2.2020
 5016SOL    HW215365   3.717   1.832   5.633 -0.3855 -2.2673 -0.6243
 5017SOL     OW15366   2.366   3.143   0.010 -0.1516 -0.3103 -0.0899
 5017SOL    HW115367   2.441   3.198  -0.012 -0.6051  0.5509  0.4419
 5017SOL    HW215368   2.302   3.158  -0.060 -0.8113  0.9104  0.7392
 5018SOL     OW15369   0.506   4.461   3.295  0.2741  0.1749 -0.6710
 5018SOL    HW115370   0.494   4.555   3.310 -1.1492 -0.0500 -0.2279
 5018SOL    HW215371   0.425   4.434   3.250  1.5010 -0.4846 -2.6139
 5019SOL     OW15372   5.263   0.884   0.243 -0.0434  0.2411 -0.1680
 5019SOL    HW115373   5.318   0.895   0.166  0.4740 -1.3432 -0.0767
 5019SOL    HW215374   5.175   0.872   0.208  0.1585 -0.2687 -0.5171
 5020SOL     OW15375   0.334   5.016   3.601  0.3369  0.2201 -0.1064
 5020SOL    HW115376   0.410   5.039   3.654  1.2459  0.5645 -1.4803
 5020SOL    HW215377   0.288   4.950   3.652  1.4591  0.1386  0.8526
 5021SOL     OW15378   1.215   4.609   0.687 -0.6048 -0.0469  0.4777
 5021SOL    HW115379   1.300   4.623   0.644 -0.9087  0.3848  0.0097
 5021SOL    HW215380   1.225   4.651   0.772 -0.2433 -0.2709  0.5483
 5022SOL     OW15381   4.333   2.736   1.661  0.0554  0.3883 -0.1154
 5022SOL    HW115382   4.325   2.695   1.575 -1.2222 -0.4945  0.4011
 5022SOL    HW215383   4.402   2.687   1.705 -0.9352 -0.7258  0.2174
 5023SOL     OW15384   4.823   0.792   1.147  0.4890  0.1111  0.1675
 5023SOL    HW115385   4.792   0.717   1.096  0.4434 -0.2330  0.6974
 5023SOL    HW215386   4.913   0.805   1.118  0.9672 -1.0318  1.0650
 5024SOL     OW15387   4.080   3.679   0.468 -0.6885 -0.0092  0.4398
 5024SOL    HW115388   4.142   3.626   0.517 -0.3896  1.2847  1.5365
 5024SOL    HW215389   4.135   3.743   0.422 -1.0478 -0.5225 -0.7347
 5025SOL     OW15390   5.545   4.263   0.595  0.3451 -0.3965 -0.2218
 5025SOL    HW115391   5.496   4.239   0.674 -0.4985  1.7213 -0.0207
 5025SOL    HW215392   5.637   4.256   0.621  0.0838 -0.2308  0.7875
 5026SOL     OW15393   1.056   4.695   4.166 -0.4095 -0.3338  0.3271
 5026SOL    HW115394   1.034   4.759   4.099 -2.8796 -0.8592  0.5429
 5026SOL    HW215395   1.096   4.622   4.118  0.5320  0.4714 -0.1554
 5027SOL     OW15396   3.958   2.319   0.087  0.2398 -0.0105  0.1159
 5027SOL    HW115397   4.034   2.333   0.144  0.9975 -0.7290 -0.6738
 5027SOL    HW215398   3.950   2.401   0.038  1.1538 -0.2688 -0.5053
 5028SOL     OW15399   1.840   5.157   5.147 -0.1132  0.5230  0.7489
 5028SOL    HW115400   1.869   5.202   5.067  2.2049 -2.5441 -0.3456
 5028SOL    HW215401   1.920   5.149   5.199 -0.6855 -1.2638  1.4036
 5029SOL     OW15402   2.485   1.092   3.277  0.1928  0.3572 -0.0302
 5029SOL    HW115403   2.541   1.036   3.330  0.8186  1.8143  0.9175
 5029SOL    HW215404   2.517   1.081   3.188  1.0051  0.0287  0.3000
 5030SOL     OW15405   4.692   0.309   1.578  0.2347  0.4938  0.2973
 5030SOL    HW115406   4.732   0.248   1.640  0.2860  0.2431  0.0226
 5030SOL    HW215407   4.663   0.253   1.506 -0.0067  0.7576  0.1890
 5031SOL     OW15408   1.547   4.762   1.781 -0.3032 -0.1108  0.3620
 5031SOL    HW115409   1.456   4.773   1.810 -1.1744 -1.0712 -1.7485
 5031SOL    HW215410   1.555   4.668   1.765  0.9729  0.0115  0.2251
 5032SOL     OW15411   4.052   0.457   0.493  0.4893  0.2309  0.3970
 5032SOL    HW115412   4.127   0.503   0.530  0.9784 -0.7784  0.6932
 5032SOL    HW215413   4.018   0.404   0.566 -0.5220  0.6746  0.2698
 5033SOL     OW15414   2.694   4.206   3.991  0.0437 -0.2086  0.1581
 5033SOL    HW115415   2.716   4.178   3.902 -0.5972  0.2840 -0.1622
 5033SOL    HW215416   2.682   4.301   3.985 -1.1487 -0.3169  0.5155
 5034SOL     OW15417   4.901   1.410   1.354 -0.0665 -0.3107 -0.4529
 5034SOL    HW115418   4.878   1.500   1.330  0.7090 -0.0885 -0.3918
 5034SOL    HW215419   4.878   1.402   1.446 -2.0529 -0.8313 -0.9347
 5035SOL     OW15420   2.537   0.466   1.594  0.3225  0.1211  0.4994
 5035SOL    HW115421   2.626   0.470   1.630  0.2691  1.4918  0.5416
 5035SOL    HW215422   2.538   0.392   1.533  1.3639 -0.1319  0.8093
 5036SOL     OW15423   1.696   1.718   0.879 -0.0402 -0.0504 -0.2487
 5036SOL    HW115424   1.673   1.629   0.905  0.4102  0.1150  0.7707
 5036SOL    HW215425   1.763   1.707   0.811 -0.1653 -0.4832 -0.3046
 5037SOL     OW15426   0.888   1.946   3.647  0.4256 -0.1211 -0.0872
 5037SOL    HW115427   0.822   1.955   3.716 -0.3930  1.2254 -0.9740
 5037SOL    HW215428   0.884   1.854   3.621 -0.2112 -0.3422  0.7542
 5038SOL     OW15429   0.847   3.421   0.112 -0.2102 -0.1936 -0.0881
 5038SOL    HW115430   0.762   3.459   0.134  0.6708  0.5125  2.5112
 5038SOL    HW215431   0.846   3.335   0.153  0.0252 -0.5405 -0.7997
 5039SOL     OW15432   4.331   1.399   3.443 -0.0210  0.0218 -0.1086
 5039SOL    HW115433   4.270   1.386   3.516  0.9295  0.2012  0.7302
 5039SOL    HW215434   4.418   1.401   3.483  0.6223 -0.9472 -1.3541
 5040SOL     OW15435   0.557   1.567   1.246  0.0545  0.4999 -0.1579
 5040SOL    HW115436   0.515   1.512   1.313  0.9937  0.0980  0.1062
 5040SOL    HW215437   0.487   1.627   1.218 -0.6371 -0.0063  0.4366
 5041SOL     OW15438   0.552   3.254   0.715 -0.1760  0.4153 -0.0835
 5041SOL    HW115439   0.590   3.167   0.721  1.3605  0.9891 -0.9405
 5041SOL    HW215440   0.561   3.291   0.802 -2.0904 -0.7216  0.6740
 5042SOL     OW15441   2.244   0.818   0.779 -0.1905 -0.3061 -0.0061
 5042SOL    HW115442   2.238   0.722   0.788  1.7615 -0.3891  1.0080
 5042SOL    HW215443   2.237   0.851   0.868  2.2338  0.2103  0.0645
 5043SOL     OW15444   3.015   4.705   3.655  0.4201 -0.1686 -0.1244
 5043SOL    HW115445   2.999   4.709   3.561 -1.9819  1.5166  0.2644
 5043SOL    HW215446   3.108   4.682   3.662  1.2398  1.6510 -2.9445
 5044SOL     OW15447   1.238   3.517   2.669 -0.0019  0.4506 -1.6250
 5044SOL    HW115448   1.261   3.558   2.753 -1.5828 -2.4826  0.4200
 5044SOL    HW215449   1.149   3.546   2.652 -0.5831 -0.8269 -0.9338
 5045SOL     OW15450   1.313   3.524   4.863  0.0704 -0.3461 -0.2060
 5045SOL    HW115451   1.367   3.452   4.893 -0.3169 -0.9420 -0.9123
 5045SOL    HW215452   1.366   3.568   4.797 -0.0956 -0.6266 -0.5327
 5046SOL     OW15453   4.265   2.532   5.396  0.0185 -0.1752 -0.5877
 5046SOL    HW115454   4.257   2.460   5.459 -0.8599  0.8232  0.4977
 5046SOL    HW215455   4.178   2.538   5.356  0.0897  0.2628 -0.6813
 5047SOL     OW15456   3.436   4.945   0.894 -0.0760  0.2860  0.4245
 5047SOL    HW115457   3.386   4.969   0.816  0.1378  0.7354  0.4224
 5047SOL    HW215458   3.396   4.864   0.925 -1.5108  1.2170  1.0724
 5048SOL     OW15459   4.936   4.037   5.260  0.6012  0.1547  0.5897
 5048SOL    HW115460   4.944   3.950   5.299  1.2998 -0.6284 -1.2265
 5048SOL    HW215461   4.860   4.030   5.202  1.2454  0.4574 -0.3016
 5049SOL     OW15462   5.398   0.734   1.948  0.0577  0.1040  0.2509
 5049SOL    HW115463   5.429   0.667   2.009 -2.6506 -0.8065  0.7694
 5049SOL    HW215464   5.470   0.797   1.944  1.0729 -0.6960  3.0266
 5050SOL     OW15465   4.666   4.829   4.348  0.7036 -0.1102 -0.1646
 5050SOL    HW115466   4.681   4.787   4.433  0.2477 -0.1980 -0.1256
 5050SOL    HW215467   4.733   4.898   4.344  1.7673 -1.1268 -0.4367
 5051SOL     OW15468   1.397   3.773   3.349 -0.7064 -0.2358  0.1617
 5051SOL    HW115469   1.364   3.800   3.263 -0.3039  1.3381  0.4698
 5051SOL    HW215470   1.491   3.758   3.335 -0.0684  2.6398  0.8294
 5052SOL     OW15471   3.259   2.221   0.058  0.2454 -0.3088  0.4694
 5052SOL    HW115472   3.237   2.128   0.059  0.9221 -0.4776  1.6662
 5052SOL    HW215473   3.348   2.224   0.023  0.9568 -0.3215  2.1804
 5053SOL     OW15474   1.393   5.221   0.111  0.4763  0.4756  0.6848
 5053SOL    HW115475   1.363   5.130   0.112 -0.2262  0.7023  0.4635
 5053SOL    HW215476   1.441   5.229   0.029 -0.6952  0.6890 -0.0021
 5054SOL     OW15477   2.547   2.896   1.495 -0.0567  0.0241 -0.3203
 5054SOL    HW115478   2.512   2.841   1.425 -1.0731 -1.4077  1.2408
 5054SOL    HW215479   2.470   2.932   1.539  0.5620  1.0438 -0.0207
 5055SOL     OW15480   4.642   0.648   4.109 -0.3107  0.6471 -0.3516
 5055SOL    HW115481   4.559   0.645   4.157 -0.3658 -1.6339 -0.4916
 5055SOL    HW215482   4.682   0.563   4.126  0.6886  0.6163 -2.5785
 5056SOL     OW15483   2.144   1.702   0.553 -0.3292  0.9474  0.3331
 5056SOL    HW115484   2.158   1.793   0.530 -0.4831  0.7704 -0.4938
 5056SOL    HW215485   2.091   1.705   0.632  1.5364  1.5873  1.6221
 5057SOL     OW15486   1.889   0.628   2.426 -0.4740 -0.0766 -0.0670
 5057SOL    HW115487   1.908   0.541   2.462 -0.3147  0.0314  0.1186
 5057SOL    HW215488   1.794   0.634   2.427 -0.5436 -0.6904 -1.1565
 5058SOL     OW15489   1.771   0.943   1.422  0.2048 -0.6162 -0.2310
 5058SOL    HW115490   1.773   0.849   1.406 -1.0940 -0.6774 -0.0961
 5058SOL    HW215491   1.706   0.955   1.491  0.3425  0.3839 -0.2549
 5059SOL     OW15492   5.158   3.764   5.554  0.0615  0.1681 -0.2619
 5059SOL    HW115493   5.121   3.730   5.636 -0.0818  2.5899  0.7665
 5059SOL    HW215494   5.082   3.777   5.497 -0.2522  1.2844  0.3646
 5060SOL     OW15495   0.697   2.407   0.375  0.1413 -0.5881  0.1708
 5060SOL    HW115496   0.671   2.453   0.295  1.2419  0.0789  0.1765
 5060SOL    HW215497   0.727   2.321   0.345  1.1270 -0.1189 -0.2105
 5061SOL     OW15498   0.208   4.482   2.277 -0.0271  0.6181  0.2009
 5061SOL    HW115499   0.266   4.499   2.203 -0.8669 -0.5415 -0.7637
 5061SOL    HW215500   0.168   4.397   2.258 -1.8567  1.2615  0.9418
 5062SOL     OW15501   3.670   4.686   0.896 -0.2745  0.6799 -0.2189
 5062SOL    HW115502   3.719   4.654   0.972 -0.8360 -0.0962 -0.1600
 5062SOL    HW215503   3.578   4.666   0.917 -0.6012  1.9324 -0.4035
 5063SOL     OW15504   3.484   0.617   2.322 -0.6380  0.2141 -0.3255
 5063SOL    HW115505   3.519   0.550   2.263 -0.9192 -0.1679 -0.0668
 5063SOL    HW215506   3.519   0.699   2.288 -2.1790  0.2173 -2.0875
 5064SOL     OW15507   3.186   1.358   2.191  0.1753  0.6762  0.8001
 5064SOL    HW115508   3.138   1.429   2.235  0.0779  0.4468  1.0704
 5064SOL    HW215509   3.252   1.331   2.255 -0.8375 -0.5783  1.3755
 5065SOL     OW15510   1.423   2.738   5.533 -0.3070 -0.0562 -0.3275
 5065SOL    HW115511   1.415   2.684   5.612  0.5287  1.2663  0.7071
 5065SOL    HW215512   1.403   2.827   5.562 -2.2780  0.1756 -2.1287
 5066SOL     OW15513   2.259   4.436   0.490  0.5768 -0.3779  0.4168
 5066SOL    HW115514   2.181   4.458   0.439 -0.4530 -3.7651  0.3138
 5066SOL    HW215515   2.229   4.437   0.581  1.4082  1.7889  0.7208
 5067SOL     OW15516   4.418   2.446   4.808  0.3388 -0.2599  0.1355
 5067SOL    HW115517   4.368   2.403   4.739 -0.3154  1.6139 -0.6198
 5067SOL    HW215518   4.357   2.453   4.882  0.3871 -0.4485  0.1943
 5068SOL     OW15519   3.599   3.627   3.782 -0.1666  0.6599  0.5244
 5068SOL    HW115520   3.675   3.611   3.726  0.4952  1.8362  1.0505
 5068SOL    HW215521   3.526   3.587   3.735  0.8276 -0.9278  0.2330
 5069SOL     OW15522   0.106   4.676   3.233 -0.2157  0.0677 -0.2788
 5069SOL    HW115523   0.082   4.586   3.210  1.4112 -0.1004 -1.4565
 5069SOL    HW215524   0.051   4.730   3.177 -0.0733 -0.2277 -0.7090
 5070SOL     OW15525   4.879   2.008   5.218 -0.2939  0.1397  0.0310
 5070SOL    HW115526   4.824   2.064   5.163 -0.6299 -1.1523 -0.9865
 5070SOL    HW215527   4.859   2.035   5.307  0.5308  2.5375 -0.4347
 5071SOL     OW15528   4.677   5.432   0.829  0.0740  0.2082  0.1201
 5071SOL    HW115529   4.760   5.418   0.783 -0.0369  1.3689 -0.4866
 5071SOL    HW215530   4.695   5.408   0.920  0.8167 -0.4004 -0.1760
 5072SOL     OW15531   3.423   1.214   3.020  0.5293  0.1299 -0.0941
 5072SOL    HW115532   3.366   1.235   3.094  2.0524  0.2703  1.0867
 5072SOL    HW215533   3.468   1.134   3.046  0.9823  0.0901 -0.9492
 5073SOL     OW15534   5.269   0.114   2.277 -0.3272  0.2507  0.2418
 5073SOL    HW115535   5.191   0.073   2.239 -0.2299  0.0314  0.2726
 5073SOL    HW215536   5.285   0.191   2.223 -1.7143  1.4195  1.4042
 5074SOL     OW15537   3.630   4.366   0.127 -0.5037  0.3366 -1.3590
 5074SOL    HW115538   3.724   4.370   0.109 -0.5920  2.7811 -1.6436
 5074SOL    HW215539   3.622   4.381   0.221 -0.6355  3.2767 -1.7280
 5075SOL     OW15540   2.232   0.850   3.916  0.1706 -0.0884  0.1013
 5075SOL    HW115541   2.198   0.938   3.900 -2.1843 -1.0037 -0.3202
 5075SOL    HW215542   2.189   0.796   3.850  2.6423 -1.3776 -0.5710
 5076SOL     OW15543   0.572   0.931   4.364  1.3107 -0.3985  0.3131
 5076SOL    HW115544   0.565   0.949   4.270  0.1399 -0.2859  0.4156
 5076SOL    HW215545   0.592   0.838   4.370  1.9802 -0.2887 -0.0506
 5077SOL     OW15546   4.766   4.177   2.369  0.0015  0.0227 -0.4505
 5077SOL    HW115547   4.707   4.180   2.444 -0.0909  1.3970 -0.5580
 5077SOL    HW215548   4.733   4.245   2.310  1.1403  0.1835 -0.9278
 5078SOL     OW15549   3.945   2.244   2.039  0.4989  0.4428 -0.5281
 5078SOL    HW115550   3.899   2.268   1.959  1.9323  4.6529 -0.3684
 5078SOL    HW215551   4.004   2.173   2.014 -2.4255 -1.7058 -1.8643
 5079SOL     OW15552   3.721   4.139   2.012 -0.2198  0.0870 -0.1308
 5079SOL    HW115553   3.737   4.211   1.952  1.1455 -0.0766 -0.0000
 5079SOL    HW215554   3.686   4.180   2.091  0.2459  0.5758 -0.1718
 5080SOL     OW15555   4.805   1.357   5.476 -0.9312 -0.5968  0.2926
 5080SOL    HW115556   4.813   1.394   5.388 -0.3897  2.1097  1.3608
 5080SOL    HW215557   4.719   1.314   5.476 -2.8326  2.8203 -0.4745
 5081SOL     OW15558   1.280   2.849   1.783 -0.0448 -0.4640  0.0148
 5081SOL    HW115559   1.350   2.870   1.721 -0.4746  1.3623  0.0762
 5081SOL    HW215560   1.208   2.818   1.728  0.4535 -1.4152 -0.1308
 5082SOL     OW15561   4.626   2.924   4.404 -0.7572  0.4445 -1.1699
 5082SOL    HW115562   4.635   2.850   4.464 -0.0287  0.5178 -1.1878
 5082SOL    HW215563   4.601   2.885   4.320 -0.6159  0.2422 -1.1175
 5083SOL     OW15564   3.682   1.802   1.452 -0.3492  0.2391  0.1035
 5083SOL    HW115565   3.671   1.874   1.390  3.0205 -1.1078 -2.3333
 5083SOL    HW215566   3.628   1.731   1.416 -0.2634  0.1905  0.0713
 5084SOL     OW15567   0.943   2.990   5.363  0.2640  0.0300 -0.3594
 5084SOL    HW115568   0.970   3.057   5.426  0.6617 -2.0904  1.9246
 5084SOL    HW215569   1.003   2.917   5.379 -2.0187 -2.0073 -0.5021
 5085SOL     OW15570   4.054   3.345   3.318 -0.0789  0.1308 -0.6301
 5085SOL    HW115571   4.053   3.269   3.376 -2.1868  2.1357  2.2115
 5085SOL    HW215572   4.123   3.401   3.354 -2.1724  1.9136  0.8823
 5086SOL     OW15573   2.195   3.295   0.211 -0.1575  0.2105 -0.2207
 5086SOL    HW115574   2.260   3.361   0.235 -0.2159 -0.3332  1.5341
 5086SOL    HW215575   2.224   3.264   0.125  0.2621  1.9923 -0.7719
 5087SOL     OW15576   0.057   1.982   5.074  0.0931  0.0439  0.3342
 5087SOL    HW115577   0.068   1.985   4.979 -0.2867  0.4378  0.3008
 5087SOL    HW215578   0.130   1.927   5.105  0.5615  0.3949 -0.1264
 5088SOL     OW15579   3.974   1.043   3.323  0.0213 -0.5708 -0.2556
 5088SOL    HW115580   4.036   1.048   3.250 -0.5179 -0.2491 -0.6961
 5088SOL    HW215581   4.001   1.114   3.381  0.6010 -0.9770 -0.0185
 5089SOL     OW15582   5.001   0.651   1.337  0.7878 -0.2755  0.6719
 5089SOL    HW115583   4.910   0.642   1.365  1.0325  0.9458  1.9246
 5089SOL    HW215584   5.000   0.623   1.245 -1.0916  0.9011  0.2785
 5090SOL     OW15585   3.405   1.174   5.322  0.2606 -0.1814 -0.3057
 5090SOL    HW115586   3.423   1.265   5.303 -2.3361  0.6789  0.8781
 5090SOL    HW215587   3.417   1.128   5.239  0.5781  1.4063 -1.1565
 5091SOL     OW15588   2.857   3.562   5.050  0.3858  0.0091  0.5314
 5091SOL    HW115589   2.851   3.468   5.030  1.7354  0.2526 -1.2474
 5091SOL    HW215590   2.920   3.567   5.122  3.1114 -0.2877 -1.6617
 5092SOL     OW15591   1.278   1.587   2.294  0.2740 -0.3769 -0.0250
 5092SOL    HW115592   1.318   1.586   2.381 -0.6410 -0.9947  0.4094
 5092SOL    HW215593   1.331   1.525   2.243  1.3702  0.6606 -0.1929
 5093SOL     OW15594   5.450   5.332   2.960  0.2256  0.5584  0.1403
 5093SOL    HW115595   5.542   5.336   2.988  0.9388 -1.4781 -1.6296
 5093SOL    HW215596   5.428   5.239   2.965 -2.2304  1.1436  1.7833
 5094SOL     OW15597   1.977   3.858   2.827 -0.1216  0.2316 -0.0810
 5094SOL    HW115598   2.004   3.885   2.915 -1.0502  1.9483 -0.2876
 5094SOL    HW215599   1.985   3.937   2.774 -2.4689  0.0281 -0.8483
 5095SOL     OW15600   4.311   2.794   3.062 -0.4663  0.2918  0.1765
 5095SOL    HW115601   4.321   2.706   3.099 -0.5483  0.1346 -0.1736
 5095SOL    HW215602   4.379   2.800   2.996  1.2499  1.4293  1.9217
 5096SOL     OW15603   5.541   2.550   4.581  0.0989  0.1132  0.6159
 5096SOL    HW115604   5.567   2.458   4.583 -0.2893  0.0053  0.7215
 5096SOL    HW215605   5.515   2.570   4.671 -0.5441  0.1121  0.4362
 5097SOL     OW15606   1.907   2.306   0.989  0.3556  0.0606  0.4253
 5097SOL    HW115607   1.846   2.373   0.957 -0.1086 -0.7415 -0.4277
 5097SOL    HW215608   1.853   2.228   0.999  0.9085 -0.2139  1.3303
 5098SOL     OW15609   1.835   4.327   0.580  0.1729  0.1906  0.4876
 5098SOL    HW115610   1.797   4.405   0.540 -0.1351  0.1979  0.7899
 5098SOL    HW215611   1.805   4.255   0.524 -0.1741  0.2111  0.6422
 5099SOL     OW15612   4.760   4.799   0.677 -0.0616 -0.1036 -0.1508
 5099SOL    HW115613   4.818   4.875   0.680  4.0324 -2.9115 -0.6652
 5099SOL    HW215614   4.787   4.745   0.752  0.3661 -3.0043 -2.2310
 5100SOL     OW15615   0.485   2.922   2.187 -0.3592  0.1209 -0.0073
 5100SOL    HW115616   0.554   2.878   2.138  0.5944  0.1469  1.2642
 5100SOL    HW215617   0.417   2.855   2.198 -0.7780  0.2436 -1.6955
 5101SOL     OW15618   2.072   3.427   5.005  0.4203 -0.5512  0.4636
 5101SOL    HW115619   2.017   3.415   5.082  0.8467 -2.7259  0.4909
 5101SOL    HW215620   2.026   3.382   4.934  0.9724 -0.2702 -0.0856
 5102SOL     OW15621   1.403   0.360   1.508 -0.1879 -0.3973 -0.2550
 5102SOL    HW115622   1.463   0.308   1.455 -0.1731  1.6899 -2.4617
 5102SOL    HW215623   1.317   0.322   1.490  0.0577 -1.0174 -0.1202
 5103SOL     OW15624   1.133   1.993   4.807 -0.9339 -0.2036  0.4270
 5103SOL    HW115625   1.070   1.933   4.845 -2.5303  1.3782  0.3965
 5103SOL    HW215626   1.103   2.080   4.834  2.2306  0.5776  1.8905
 5104SOL     OW15627   2.092   3.251   4.370  0.4166 -0.0698  0.8162
 5104SOL    HW115628   2.122   3.160   4.370 -1.7891 -0.9061 -0.7358
 5104SOL    HW215629   2.000   3.246   4.397  0.0270  1.5829 -0.0400
 5105SOL     OW15630   3.165   4.555   2.667 -0.4451  0.5811 -0.4903
 5105SOL    HW115631   3.137   4.505   2.744 -0.7450  0.3034 -0.7762
 5105SOL    HW215632   3.120   4.639   2.675 -1.3802  0.1392 -0.9451
 5106SOL     OW15633   4.184   4.801   0.848  0.2527 -0.2022  0.4783
 5106SOL    HW115634   4.189   4.879   0.792  2.0454  0.2693  1.2068
 5106SOL    HW215635   4.131   4.828   0.922 -0.4906 -0.1993 -0.0510
 5107SOL     OW15636   2.435   5.474   2.781  0.5273 -0.0184 -0.1381
 5107SOL    HW115637   2.378   5.402   2.754 -0.7516  0.6006  0.8199
 5107SOL    HW215638   2.460   5.452   2.870 -0.0652  0.8226  0.2448
 5108SOL     OW15639   3.702   4.724   4.847  0.3882  0.1956 -0.2095
 5108SOL    HW115640   3.643   4.711   4.774 -0.0556  0.3508  0.1185
 5108SOL    HW215641   3.670   4.666   4.916 -0.3418  1.4117  0.5197
 5109SOL     OW15642   1.583   4.295   2.149 -0.1117  0.2041 -0.1891
 5109SOL    HW115643   1.520   4.362   2.124  1.2709  0.8329 -2.1880
 5109SOL    HW215644   1.541   4.212   2.124  0.1067  0.6596 -2.1954
 5110SOL     OW15645   5.226   1.883   1.607 -0.2937  0.2073 -0.1161
 5110SOL    HW115646   5.256   1.803   1.563  0.2415  0.4078 -0.1303
 5110SOL    HW215647   5.155   1.916   1.552 -0.6702 -0.3795  0.0130
 5111SOL     OW15648   2.705   0.113   3.626  0.7206 -0.9462 -0.7959
 5111SOL    HW115649   2.753   0.083   3.703  1.6657 -1.7812 -1.6938
 5111SOL    HW215650   2.663   0.194   3.655  2.2227 -0.4783  0.1708
 5112SOL     OW15651   0.098   4.836   5.182  0.2047  0.3188  0.6427
 5112SOL    HW115652   0.153   4.913   5.196 -0.9157  0.9306  1.9822
 5112SOL    HW215653   0.022   4.870   5.135  0.7205 -0.4319 -0.7941
 5113SOL     OW15654   1.183   2.085   1.777 -0.1473  0.3115 -0.3871
 5113SOL    HW115655   1.115   2.133   1.731 -0.4274  0.5065  0.2230
 5113SOL    HW215656   1.151   1.995   1.781 -1.1411  0.6948  1.2964
 5114SOL     OW15657   2.843   3.102   4.388 -0.1011  0.0019 -0.0508
 5114SOL    HW115658   2.873   3.011   4.380 -0.3336 -0.1934  1.0784
 5114SOL    HW215659   2.915   3.148   4.429 -0.2010  0.2048 -0.1016
 5115SOL     OW15660   2.412   0.234   1.215 -0.0737  0.7465  0.2151
 5115SOL    HW115661   2.372   0.277   1.291 -2.1941 -0.7258  0.0384
 5115SOL    HW215662   2.337   0.198   1.167  1.3711 -0.0992 -1.4891
 5116SOL     OW15663   1.899   1.728   3.826  0.2484 -0.4702 -0.1353
 5116SOL    HW115664   1.981   1.776   3.836  0.5183 -0.8593 -0.4643
 5116SOL    HW215665   1.925   1.637   3.817 -0.1981 -0.5583 -0.5789
 5117SOL     OW15666   0.556   1.693   0.269  0.3815  0.5998 -0.2359
 5117SOL    HW115667   0.502   1.614   0.267  2.7298 -1.3116  2.5549
 5117SOL    HW215668   0.494   1.765   0.284 -1.5131 -1.5191  3.6786
 5118SOL     OW15669   2.917   5.370   4.047 -0.5979  0.2489 -0.0893
 5118SOL    HW115670   2.843   5.425   4.023  0.8871  2.0958 -0.7089
 5118SOL    HW215671   2.956   5.344   3.963 -0.8064 -1.1180  0.2164
 5119SOL     OW15672   5.410   4.715   0.584  0.7286  0.3578 -0.0210
 5119SOL    HW115673   5.494   4.756   0.562  1.7962 -1.1436  1.0278
 5119SOL    HW215674   5.417   4.626   0.548 -1.0887  0.6869 -1.3301
 5120SOL     OW15675   3.998   1.970   1.846 -0.3790  0.1541  0.1987
 5120SOL    HW115676   3.976   1.993   1.757  0.0387 -1.6666 -0.4291
 5120SOL    HW215677   4.094   1.976   1.850 -0.3209 -0.6492  0.2350
 5121SOL     OW15678   1.330   5.014   4.521  0.2132  0.5052  0.1349
 5121SOL    HW115679   1.295   4.945   4.577  1.0828 -0.2800 -0.2509
 5121SOL    HW215680   1.262   5.029   4.456 -0.1539  0.2908  0.4665
 5122SOL     OW15681   2.010   2.982   3.440 -0.2991  0.3726 -0.0275
 5122SOL    HW115682   1.939   2.935   3.396  0.5772 -1.2474  0.1934
 5122SOL    HW215683   1.988   2.977   3.533 -1.2773  2.3028 -0.1151
 5123SOL     OW15684   4.006   4.778   3.846 -0.2554 -0.4910 -0.3650
 5123SOL    HW115685   4.092   4.820   3.850  0.3332 -1.7043  2.5487
 5123SOL    HW215686   3.953   4.835   3.790  1.7859  1.5374 -0.3604
 5124SOL     OW15687   1.908   0.336   0.270 -0.6143 -0.3741  0.9006
 5124SOL    HW115688   1.982   0.364   0.215  0.1245 -2.2075  0.8952
 5124SOL    HW215689   1.936   0.254   0.309 -2.1034 -0.3690  2.0963
 5125SOL     OW15690   2.238   4.351   0.169 -0.2495  0.0255  0.2240
 5125SOL    HW115691   2.199   4.433   0.196 -1.2119 -0.1195 -0.6388
 5125SOL    HW215692   2.315   4.376   0.118 -1.1597  0.4701 -0.9975
 5126SOL     OW15693   3.669   0.544   3.493  0.5220 -0.0659 -0.6737
 5126SOL    HW115694   3.678   0.616   3.555 -2.4126  1.2926 -1.6700
 5126SOL    HW215695   3.760   0.516   3.477  1.5442  1.1911  2.1889
 5127SOL     OW15696   4.516   3.517   2.812 -0.3268  0.3612  0.7302
 5127SOL    HW115697   4.503   3.433   2.767  2.5357 -0.0070  0.4040
 5127SOL    HW215698   4.493   3.498   2.903  1.5519 -1.2497  0.9473
 5128SOL     OW15699   0.589   4.379   3.546 -0.1263  0.1258 -0.2643
 5128SOL    HW115700   0.545   4.442   3.489 -2.4957 -0.2032  1.0884
 5128SOL    HW215701   0.614   4.429   3.624 -0.3188 -0.2226  0.0210
 5129SOL     OW15702   5.404   0.894   0.025 -0.0188 -0.3612  0.2254
 5129SOL    HW115703   5.374   0.958  -0.039 -0.8593  0.5665  1.5017
 5129SOL    HW215704   5.465   0.839  -0.023 -0.3325  0.5394 -1.2651
 5130SOL     OW15705   2.681   3.018   5.399 -0.3212  0.0632 -0.2970
 5130SOL    HW115706   2.681   3.002   5.493 -1.1248  1.8434  0.0574
 5130SOL    HW215707   2.668   3.113   5.391  0.1302  0.0074 -2.1940
 5131SOL     OW15708   1.041   2.418   2.019  0.2602 -0.0126  0.6236
 5131SOL    HW115709   0.960   2.401   1.971  0.3799 -1.4453  0.8997
 5131SOL    HW215710   1.079   2.332   2.034  0.8455  0.4849  2.2336
 5132SOL     OW15711   0.283   1.337   2.837 -0.4407 -0.3353  0.3932
 5132SOL    HW115712   0.370   1.377   2.847 -0.1014 -0.7872 -0.5765
 5132SOL    HW215713   0.293   1.249   2.873 -0.0225 -0.9493 -1.1298
 5133SOL     OW15714   3.363   3.200   3.162  0.4342  0.0147 -0.2536
 5133SOL    HW115715   3.385   3.254   3.238  0.0432 -1.6261  1.0783
 5133SOL    HW215716   3.323   3.121   3.199  1.4171 -1.4328 -2.0816
 5134SOL     OW15717   2.105   0.170   0.409  0.2621  0.3528  0.1932
 5134SOL    HW115718   2.128   0.183   0.317  0.9092 -2.2611 -0.0882
 5134SOL    HW215719   2.179   0.207   0.458 -0.6656  2.9211 -0.2163
 5135SOL     OW15720   0.278   1.704   4.096 -0.5004  0.0308 -0.0374
 5135SOL    HW115721   0.311   1.635   4.153  1.0544 -0.3245 -1.3032
 5135SOL    HW215722   0.258   1.777   4.155  2.3325  0.1642  0.8885
 5136SOL     OW15723   2.904   0.248   1.168 -0.3639 -0.0623 -0.0634
 5136SOL    HW115724   2.900   0.343   1.178 -0.9343 -0.1153  0.2091
 5136SOL    HW215725   2.814   0.218   1.177  0.1773 -1.0042  3.4056
 5137SOL     OW15726   5.007   2.091   3.938  0.2281 -0.2118  0.5761
 5137SOL    HW115727   5.085   2.090   3.993  0.4137 -1.7458  0.3384
 5137SOL    HW215728   4.957   2.167   3.968  1.3616  0.2535  1.3565
 5138SOL     OW15729   4.658   2.486   5.486  0.1077 -0.3507 -0.0896
 5138SOL    HW115730   4.694   2.485   5.397 -2.1850 -0.0802 -1.0799
 5138SOL    HW215731   4.692   2.406   5.526 -0.2958 -1.4807 -1.8622
 5139SOL     OW15732   0.433   2.636   5.451  0.2776 -0.1066 -0.1781
 5139SOL    HW115733   0.412   2.581   5.527  1.3350  0.5785  0.6366
 5139SOL    HW215734   0.436   2.575   5.377 -0.4882 -0.8254  0.3599
 5140SOL     OW15735   0.187   5.136   5.339 -0.4517  0.5325 -0.6317
 5140SOL    HW115736   0.142   5.211   5.379  1.1232  0.5388  1.2390
 5140SOL    HW215737   0.169   5.063   5.398  1.0416  0.2930 -0.4502
 5141SOL     OW15738   4.829   2.606   4.176 -0.9332  0.0093  0.1737
 5141SOL    HW115739   4.857   2.605   4.084  0.8248  1.3347  0.6388
 5141SOL    HW215740   4.733   2.601   4.172 -0.8655 -0.5029 -1.7024
 5142SOL     OW15741   0.379   0.852   5.528 -0.4176 -0.0828 -0.1522
 5142SOL    HW115742   0.386   0.805   5.445 -1.4506  0.5020 -0.5760
 5142SOL    HW215743   0.452   0.817   5.581  0.6195 -0.0264 -1.4952
 5143SOL     OW15744   4.296   0.294   2.297  0.6169 -0.2213  0.0271
 5143SOL    HW115745   4.318   0.218   2.352  0.7449  0.0660  0.3765
 5143SOL    HW215746   4.207   0.277   2.267 -0.0584  0.3577  1.6121
 5144SOL     OW15747   5.422   5.171   1.683  0.1489 -0.9011  0.0823
 5144SOL    HW115748   5.476   5.231   1.632  0.0256 -2.1682 -1.6077
 5144SOL    HW215749   5.368   5.125   1.619  0.1054 -2.6925  1.3070
 5145SOL     OW15750   3.737   2.040   1.938  0.8500 -0.1295  0.4083
 5145SOL    HW115751   3.719   2.088   1.857 -1.2140 -1.7285 -0.1756
 5145SOL    HW215752   3.825   2.004   1.925  0.0698 -1.4602 -1.7984
 5146SOL     OW15753   4.580   5.386   2.402 -0.3010  0.2989 -0.1357
 5146SOL    HW115754   4.556   5.360   2.491 -3.1277 -2.9303 -1.6251
 5146SOL    HW215755   4.640   5.319   2.372 -0.9397  0.2105 -1.2897
 5147SOL     OW15756   5.449   4.348   1.358  0.0503  0.0546 -0.1093
 5147SOL    HW115757   5.391   4.274   1.343 -0.0612 -0.3735  2.0840
 5147SOL    HW215758   5.523   4.334   1.300  0.8408 -2.7216  1.4166
 5148SOL     OW15759   0.369   2.143   0.459  0.5199 -0.3377  0.0319
 5148SOL    HW115760   0.373   2.237   0.442 -1.1081  0.3536  2.8687
 5148SOL    HW215761   0.283   2.117   0.426  1.3348 -1.1148 -1.6096
 5149SOL     OW15762   2.147   3.786   1.844  0.3475  0.0876 -0.8428
 5149SOL    HW115763   2.190   3.719   1.790 -0.0412  0.9995 -2.3337
 5149SOL    HW215764   2.168   3.869   1.800 -2.9599  0.5967 -1.7554
 5150SOL     OW15765   2.340   0.896   0.270 -0.2539 -0.0894 -0.8880
 5150SOL    HW115766   2.325   0.861   0.182  1.1847 -1.5477 -0.5841
 5150SOL    HW215767   2.274   0.853   0.325  1.6971 -2.7412 -0.4542
 5151SOL     OW15768   4.597   2.212   1.493  0.2713  0.1099 -0.3716
 5151SOL    HW115769   4.640   2.213   1.578  1.0290  0.9826 -0.7524
 5151SOL    HW215770   4.527   2.278   1.500 -1.6996 -1.9303  0.5500
 5152SOL     OW15771   4.878   1.472   0.947  0.2126 -0.2916  0.1229
 5152SOL    HW115772   4.802   1.426   0.913 -0.0050  0.3020 -0.2043
 5152SOL    HW215773   4.922   1.408   1.003 -0.0823 -0.8910 -0.3248
 5153SOL     OW15774   0.880   2.285   2.862 -0.4064 -0.3863 -0.0339
 5153SOL    HW115775   0.807   2.225   2.875 -0.0281 -0.5866  1.3006
 5153SOL    HW215776   0.854   2.339   2.788 -0.6609 -2.3351 -1.4440
 5154SOL     OW15777   5.378   3.321   3.517 -0.4232  0.1550  0.4826
 5154SOL    HW115778   5.332   3.404   3.529 -1.1081 -0.3371  1.4186
 5154SOL    HW215779   5.423   3.306   3.601  1.3107  0.5218 -0.3339
 5155SOL     OW15780   4.710   0.990   0.983 -0.3207  0.3440  0.1321
 5155SOL    HW115781   4.696   1.061   1.047 -1.9146 -0.1234  0.3563
 5155SOL    HW215782   4.735   0.915   1.036 -0.0807  0.3577  0.0394
 5156SOL     OW15783   5.058   3.832   3.919 -0.0907  0.5224 -0.1995
 5156SOL    HW115784   4.989   3.879   3.966  0.7250  1.0676  0.4869
 5156SOL    HW215785   5.100   3.900   3.865 -1.0002 -0.0864 -1.7362
 5157SOL     OW15786   0.862   3.717   1.560 -0.2747  0.2864 -0.0643
 5157SOL    HW115787   0.893   3.712   1.651  0.5004  0.9778 -0.2894
 5157SOL    HW215788   0.939   3.698   1.507 -0.7651 -0.2841 -0.5867
 5158SOL     OW15789   1.960   0.697   3.816 -0.0440 -0.3631  0.3676
 5158SOL    HW115790   1.867   0.691   3.797  0.3654 -2.4108 -1.3554
 5158SOL    HW215791   1.977   0.624   3.875  0.5556 -0.2218  0.3773
 5159SOL     OW15792   4.691   2.341   3.221  0.3228 -0.4896 -0.0471
 5159SOL    HW115793   4.634   2.269   3.247  0.1424 -0.0532  0.8085
 5159SOL    HW215794   4.779   2.311   3.243  0.1939 -0.2253  0.8758
 5160SOL     OW15795   3.635   4.374   4.737 -0.5872  0.4090  0.2676
 5160SOL    HW115796   3.703   4.357   4.802 -1.6951  0.8239  1.5687
 5160SOL    HW215797   3.681   4.368   4.653  1.1550  1.1705  1.1201
 5161SOL     OW15798   2.782   0.203   5.059 -0.2195 -0.2516 -0.5252
 5161SOL    HW115799   2.782   0.262   5.134  0.0728 -1.0682  0.1393
 5161SOL    HW215800   2.695   0.212   5.020 -0.5769 -0.2542  0.2717
 5162SOL     OW15801   0.513   4.863   0.967  0.5493 -0.4506  0.1443
 5162SOL    HW115802   0.477   4.832   1.050 -2.3963  0.0889 -0.8019
 5162SOL    HW215803   0.464   4.944   0.949  0.0014 -1.3266 -2.7780
 5163SOL     OW15804   5.014   4.785   4.922 -0.3202  0.0977 -0.3229
 5163SOL    HW115805   5.023   4.704   4.972 -1.3328  0.4054  0.3783
 5163SOL    HW215806   4.920   4.797   4.912 -0.1657  0.9452 -0.8187
 5164SOL     OW15807   3.412   3.086   2.929  0.0639 -0.7731  0.2573
 5164SOL    HW115808   3.400   3.132   3.012 -0.5135 -0.0933 -0.1970
 5164SOL    HW215809   3.507   3.089   2.914  0.1238 -0.5121  0.6632
 5165SOL     OW15810   2.748   4.609   3.219 -0.2493  0.0060  0.5046
 5165SOL    HW115811   2.667   4.565   3.245 -0.5949 -0.0937 -0.7106
 5165SOL    HW215812   2.754   4.595   3.125 -0.0012  1.9764  0.1909
 5166SOL     OW15813   3.984   4.971   4.770  0.0258  0.0129  0.5192
 5166SOL    HW115814   3.963   5.063   4.751 -2.6138 -0.3862  1.0341
 5166SOL    HW215815   3.943   4.955   4.855 -0.5988 -1.9200 -0.0952
 5167SOL     OW15816   2.326   5.338   3.035 -0.3600 -0.1648  0.0918
 5167SOL    HW115817   2.283   5.394   3.100 -4.0448 -2.4845 -0.0244
 5167SOL    HW215818   2.277   5.352   2.954  1.4954 -0.3531 -1.1341
 5168SOL     OW15819   1.348   5.034   3.384  0.1630  0.4275 -0.1410
 5168SOL    HW115820   1.270   5.071   3.344  0.0361  1.7851  1.2183
 5168SOL    HW215821   1.326   4.943   3.403 -0.3662  0.2527 -1.5113
 5169SOL     OW15822   4.001   1.739   3.310 -0.0951  0.5933 -0.2185
 5169SOL    HW115823   3.982   1.651   3.278 -0.3272 -0.4876  2.5908
 5169SOL    HW215824   4.016   1.728   3.404  0.0133  3.5480  0.2172
 5170SOL     OW15825   1.765   5.516   2.446  0.6865 -0.3049  0.2442
 5170SOL    HW115826   1.775   5.611   2.455  2.4546 -0.4870  0.6498
 5170SOL    HW215827   1.835   5.491   2.385  0.5316 -1.3975  0.4911
 5171SOL     OW15828   0.093   2.403   2.677  0.7857 -0.9722 -0.0123
 5171SOL    HW115829   0.110   2.349   2.755  1.4359 -1.7624 -0.6826
 5171SOL    HW215830   0.108   2.493   2.707  0.8077 -1.2438  0.8302
 5172SOL     OW15831   2.875   2.693   2.092  0.2122  0.2236 -0.1965
 5172SOL    HW115832   2.811   2.718   2.026  1.9347  0.3585 -1.9351
 5172SOL    HW215833   2.830   2.704   2.175 -1.8804  0.6128 -1.3128
 5173SOL     OW15834   4.582   3.559   1.139 -0.5904  0.4177  0.1109
 5173SOL    HW115835   4.561   3.538   1.048 -1.6599  0.5954  0.3043
 5173SOL    HW215836   4.538   3.491   1.190 -1.5257  1.3624  0.5863
 5174SOL     OW15837   2.427   3.827   4.228  0.8941  0.2326  0.1307
 5174SOL    HW115838   2.519   3.840   4.253  0.9708 -1.5679  1.0282
 5174SOL    HW215839   2.378   3.844   4.309  0.4767  0.7647 -0.2308
 5175SOL     OW15840   5.293   0.648   1.118  0.1744  0.1276  0.6948
 5175SOL    HW115841   5.201   0.622   1.106  0.4972 -0.7876  0.0731
 5175SOL    HW215842   5.311   0.628   1.210 -0.1676  0.0421  0.7467
 5176SOL     OW15843   3.097   3.320   0.497  0.1204  0.5377 -0.2163
 5176SOL    HW115844   3.059   3.349   0.579  1.6248  1.1335  0.2932
 5176SOL    HW215845   3.118   3.227   0.512  0.7377  0.7385  0.2307
 5177SOL     OW15846   2.362   1.411   2.713  0.3209 -0.7812 -0.1459
 5177SOL    HW115847   2.398   1.409   2.624 -0.2246 -1.7365 -0.3610
 5177SOL    HW215848   2.395   1.492   2.750 -0.4104  0.2485 -1.6436
 5178SOL     OW15849   0.889   2.227   3.864  0.8006  0.2669 -0.7960
 5178SOL    HW115850   0.918   2.206   3.953  1.2686  0.3211 -0.9317
 5178SOL    HW215851   0.968   2.219   3.810  0.8553  1.6477 -0.9688
 5179SOL     OW15852   2.843   4.661   2.949  0.0594 -0.1864 -0.0513
 5179SOL    HW115853   2.934   4.636   2.961  0.2395  0.1651 -0.6419
 5179SOL    HW215854   2.847   4.749   2.912 -0.5326  0.0854  0.5065
 5180SOL     OW15855   2.843   3.231   4.680  0.2174 -0.3898 -0.1269
 5180SOL    HW115856   2.903   3.190   4.618  1.8154  0.7498  0.5792
 5180SOL    HW215857   2.796   3.158   4.720  1.1083 -1.3280 -0.7467
 5181SOL     OW15858   3.753   2.921   1.315  0.1810 -0.5360 -0.2654
 5181SOL    HW115859   3.674   2.902   1.265  0.3677  0.2239 -0.8746
 5181SOL    HW215860   3.722   2.961   1.396 -0.1055 -1.4052  0.0644
 5182SOL     OW15861   1.516   4.694   4.879 -0.3752 -0.3216 -0.2706
 5182SOL    HW115862   1.472   4.719   4.960  1.6569  0.6608  0.6060
 5182SOL    HW215863   1.522   4.598   4.884 -0.1824 -0.2714  0.8136
 5183SOL     OW15864   5.477   1.096   1.628 -0.2388  0.0565 -0.1006
 5183SOL    HW115865   5.478   1.027   1.561  0.9578  0.1978 -0.2323
 5183SOL    HW215866   5.391   1.087   1.670 -0.8959 -0.2159 -1.4592
 5184SOL     OW15867   2.106   1.906   2.086 -0.0540  0.3690  0.1481
 5184SOL    HW115868   2.036   1.841   2.085 -0.4939  0.8431 -0.9545
 5184SOL    HW215869   2.060   1.990   2.093  0.3836  0.6961 -0.7486
 5185SOL     OW15870   1.460   4.744   3.192 -0.2079  0.2314  0.2521
 5185SOL    HW115871   1.424   4.672   3.141  1.7009 -0.2629 -0.4836
 5185SOL    HW215872   1.502   4.702   3.267  1.6340  0.4502 -0.6091
 5186SOL     OW15873   2.871   0.078   4.378 -0.7305 -0.0578 -0.6095
 5186SOL    HW115874   2.841   0.164   4.405  0.6342  0.1541  0.3344
 5186SOL    HW215875   2.874   0.082   4.283  0.1698  1.2478 -0.5468
 5187SOL     OW15876   4.632   3.633   1.945  0.4146 -0.0780  0.2210
 5187SOL    HW115877   4.540   3.658   1.936  0.2862 -1.2614 -2.7173
 5187SOL    HW215878   4.680   3.715   1.932 -0.1760  0.5128  1.5942
 5188SOL     OW15879   0.989   1.188   1.576  0.4706 -0.2385 -0.6200
 5188SOL    HW115880   0.994   1.176   1.481 -0.6939 -2.2121 -0.4955
 5188SOL    HW215881   1.078   1.211   1.602  0.8564  0.1321 -2.1575
 5189SOL     OW15882   2.553   1.567   5.313  0.0703 -0.0109 -0.4176
 5189SOL    HW115883   2.609   1.498   5.350  2.5063  0.8402 -2.2373
 5189SOL    HW215884   2.475   1.521   5.282  1.1481 -1.8003 -0.6192
 5190SOL     OW15885   4.685   4.692   4.570  0.8559  0.4519 -0.1266
 5190SOL    HW115886   4.660   4.602   4.593 -1.2932  1.0548  0.0969
 5190SOL    HW215887   4.755   4.714   4.631  0.1200 -0.4368  1.0943
 5191SOL     OW15888   1.616   3.986   1.903 -0.7537  0.2073 -0.7528
 5191SOL    HW115889   1.591   4.017   1.816 -1.1740  0.1952 -0.6391
 5191SOL    HW215890   1.546   3.927   1.929  0.1124 -0.9792 -1.0258
 5192SOL     OW15891   0.956   0.017   0.824 -0.3707  0.1770  0.3056
 5192SOL    HW115892   0.958  -0.006   0.731 -0.0939  0.6337  0.1963
 5192SOL    HW215893   0.863   0.021   0.846 -0.4335 -0.1592  0.1066
 5193SOL     OW15894   2.306   3.979   2.464  0.3538  0.2677  0.0176
 5193SOL    HW115895   2.271   3.905   2.514  1.8325 -1.4535 -1.3783
 5193SOL    HW215896   2.332   3.942   2.380  1.9228  2.2037 -0.4344
 5194SOL     OW15897   5.493   2.173   4.057 -0.3917 -0.0359  0.2912
 5194SOL    HW115898   5.410   2.132   4.079 -0.6515 -0.0382 -0.6377
 5194SOL    HW215899   5.503   2.157   3.963  0.0189  1.1073  0.1309
 5195SOL     OW15900   0.061   0.574   3.937  0.8092 -0.3949 -0.1834
 5195SOL    HW115901   0.133   0.521   3.971  1.8419 -0.0982 -1.7942
 5195SOL    HW215902   0.095   0.611   3.856 -0.8985  0.4128 -0.5733
 5196SOL     OW15903   0.048   2.071   0.001 -0.1702  0.0192  0.2283
 5196SOL    HW115904   0.024   2.026  -0.079  0.2324 -0.1835  0.2183
 5196SOL    HW215905  -0.023   2.052   0.062 -1.1871  1.3223 -0.5010
 5197SOL     OW15906   0.167   1.716   2.816 -0.8210  0.0281  0.1216
 5197SOL    HW115907   0.201   1.663   2.889 -1.4021 -0.6746 -0.1081
 5197SOL    HW215908   0.074   1.726   2.835 -0.5457  1.9162  0.7258
 5198SOL     OW15909   4.384   5.462   2.828  0.2891  0.1126 -0.0583
 5198SOL    HW115910   4.402   5.386   2.883 -0.3782 -0.5697 -0.7675
 5198SOL    HW215911   4.373   5.534   2.889  1.2116 -0.2949  0.6111
 5199SOL     OW15912   0.277   1.492   1.687 -0.2606  0.4438 -0.0472
 5199SOL    HW115913   0.307   1.421   1.742  0.3107 -0.2099 -1.1669
 5199SOL    HW215914   0.357   1.530   1.651 -0.6501 -0.1452 -1.6260
 5200SOL     OW15915   1.562   0.676   0.331 -0.2119  0.1498  0.4904
 5200SOL    HW115916   1.514   0.667   0.249 -0.9352 -0.2118  0.9296
 5200SOL    HW215917   1.597   0.588   0.348 -0.0194  0.2355  0.5365
 5201SOL     OW15918   3.061   2.342   4.877 -0.5499 -0.4640 -0.1262
 5201SOL    HW115919   3.142   2.386   4.903 -1.0136  0.2580  0.1202
 5201SOL    HW215920   3.079   2.249   4.888  0.3015 -0.3189 -0.2347
 5202SOL     OW15921   3.093   3.496   4.220 -0.5169  0.3003  0.1516
 5202SOL    HW115922   3.089   3.558   4.292  1.6727  1.0901 -0.3183
 5202SOL    HW215923   3.187   3.476   4.211 -0.9837 -1.6231 -0.9310
 5203SOL     OW15924   5.481   0.715   5.212  0.1817  0.0129  0.2326
 5203SOL    HW115925   5.393   0.678   5.204  0.7005 -1.2149 -0.1362
 5203SOL    HW215926   5.472   0.805   5.182 -0.5271 -0.7533 -2.1704
 5204SOL     OW15927   3.078   2.476   3.778  0.1390 -0.2953  0.3078
 5204SOL    HW115928   3.063   2.506   3.868  1.2073 -1.6845  0.9930
 5204SOL    HW215929   3.169   2.445   3.778  0.8763  1.5609 -1.8285
 5205SOL     OW15930   5.120   3.852   1.299  0.6330  0.1307  0.3889
 5205SOL    HW115931   5.135   3.938   1.260 -0.4415  0.4807  0.7143
 5205SOL    HW215932   5.203   3.831   1.343  1.6490  0.0101 -1.4894
 5206SOL     OW15933   2.079   3.849   2.331  0.1674  0.4865  0.4503
 5206SOL    HW115934   2.126   3.810   2.405  1.3241 -0.1617 -0.5860
 5206SOL    HW215935   2.126   3.818   2.253 -0.7266  1.5247 -0.5484
 5207SOL     OW15936   1.773   2.054   1.033 -0.4761  0.8084  0.5088
 5207SOL    HW115937   1.724   2.085   1.109  0.1369 -2.8018  2.6116
 5207SOL    HW215938   1.715   1.990   0.992  1.1930 -1.2587  1.2287
 5208SOL     OW15939   1.026   3.961   1.211  0.6674 -0.0821  0.1455
 5208SOL    HW115940   0.939   3.992   1.188  0.8174  0.0027 -0.3050
 5208SOL    HW215941   1.032   3.874   1.171  0.9645  0.1086 -0.2327
 5209SOL     OW15942   4.132   5.193   2.684  0.4509  0.0999  0.4000
 5209SOL    HW115943   4.082   5.191   2.602  0.2856  2.3058  0.4077
 5209SOL    HW215944   4.169   5.281   2.688  2.4469 -0.7339  1.5579
 5210SOL     OW15945   3.670   1.045   4.240 -0.2106 -0.1750  0.6799
 5210SOL    HW115946   3.752   1.087   4.268 -0.4491 -0.3469  1.6696
 5210SOL    HW215947   3.628   1.110   4.184  0.7867 -0.2401 -0.1822
 5211SOL     OW15948   0.655   4.506   4.546 -0.0998  0.0377 -0.0174
 5211SOL    HW115949   0.665   4.600   4.530  1.1040  0.1258  1.0805
 5211SOL    HW215950   0.562   4.490   4.535 -0.1387  1.0851 -1.5766
 5212SOL     OW15951   3.570   3.894   3.179 -0.3363 -0.3944  1.1347
 5212SOL    HW115952   3.552   3.808   3.141 -0.8418  0.1648  0.0878
 5212SOL    HW215953   3.529   3.956   3.120  2.4553  0.7829  0.2624
 5213SOL     OW15954   3.226   1.195   0.752  0.1660  0.1291  0.6115
 5213SOL    HW115955   3.201   1.214   0.842 -0.8190 -1.1930  0.6657
 5213SOL    HW215956   3.225   1.099   0.747 -0.0530  0.1767 -0.8570
 5214SOL     OW15957   2.419   4.881   4.514 -0.7290  0.1836 -0.1878
 5214SOL    HW115958   2.461   4.817   4.456 -1.2601 -0.0086 -0.3679
 5214SOL    HW215959   2.462   4.868   4.599  0.1290  0.5443 -0.5641
 5215SOL     OW15960   3.952   0.010   3.675 -0.1783 -0.3046 -0.6399
 5215SOL    HW115961   4.034   0.055   3.657 -0.7984  0.4720 -1.6677
 5215SOL    HW215962   3.967  -0.037   3.757  1.8449 -1.5923 -1.6801
 5216SOL     OW15963   0.871   3.469   4.614 -0.3674 -0.2078 -0.5144
 5216SOL    HW115964   0.805   3.439   4.677  1.1304 -0.9770  0.7632
 5216SOL    HW215965   0.847   3.426   4.532 -2.1255  0.4822 -0.4094
 5217SOL     OW15966   3.239   3.775   4.723  0.0609 -0.4135 -0.1260
 5217SOL    HW115967   3.241   3.847   4.786  1.9400  0.6810 -1.3295
 5217SOL    HW215968   3.214   3.817   4.640  0.1979 -1.3313 -0.6521
 5218SOL     OW15969   0.523   1.432   1.518 -0.1008  0.0815 -0.7312
 5218SOL    HW115970   0.481   1.347   1.535 -0.4006  0.5405  1.0240
 5218SOL    HW215971   0.617   1.413   1.525 -0.1396 -0.2149 -0.9636
 5219SOL     OW15972   1.757   3.570   1.305 -0.1376 -0.1034  0.1408
 5219SOL    HW115973   1.762   3.665   1.296 -0.9259 -0.0517  0.1513
 5219SOL    HW215974   1.791   3.536   1.222 -2.1350  0.2578 -0.9051
 5220SOL     OW15975   4.898   4.357   1.761  0.1667 -0.4878 -0.1357
 5220SOL    HW115976   4.906   4.437   1.812 -0.4178  0.5106 -1.5661
 5220SOL    HW215977   4.806   4.352   1.737  0.5958 -0.3613 -1.9469
 5221SOL     OW15978   1.076   1.218   2.421  0.6139  0.2901 -0.0872
 5221SOL    HW115979   1.148   1.198   2.481  1.2461 -1.0191 -1.2051
 5221SOL    HW215980   1.069   1.140   2.366 -1.4467  0.5377 -0.2499
 5222SOL     OW15981   2.106   3.971   3.516 -0.1438  0.0319 -0.5612
 5222SOL    HW115982   2.135   3.881   3.532 -0.8325 -0.2285 -0.7324
 5222SOL    HW215983   2.114   4.014   3.601  0.1150 -0.2122 -0.4598
 5223SOL     OW15984   4.914   3.633   3.569 -0.0806 -0.2565 -0.3526
 5223SOL    HW115985   4.975   3.599   3.634 -0.1661  1.5501  0.7188
 5223SOL    HW215986   4.830   3.636   3.614 -0.5374 -0.6577 -1.1403
 5224SOL     OW15987   1.302   2.381   3.869  0.8529  0.5137 -0.1575
 5224SOL    HW115988   1.390   2.390   3.832  1.2818  0.4438  0.8104
 5224SOL    HW215989   1.267   2.301   3.831  1.8820 -0.3990  0.7453
 5225SOL     OW15990   1.146   3.300   1.149 -0.0854 -0.0828  0.3978
 5225SOL    HW115991   1.119   3.281   1.239  0.4731 -0.6935  0.4403
 5225SOL    HW215992   1.065   3.322   1.104 -0.1369  2.5107  1.5840
 5226SOL     OW15993   0.851   4.774   1.325  0.1490 -0.0973  0.0182
 5226SOL    HW115994   0.868   4.683   1.299 -0.3102  0.1500 -1.2478
 5226SOL    HW215995   0.857   4.824   1.243  1.5255  1.2072  0.8561
 5227SOL     OW15996   2.226   4.771   3.676  0.1803 -0.1482  0.8069
 5227SOL    HW115997   2.135   4.757   3.650 -0.2211  2.0142  0.8600
 5227SOL    HW215998   2.225   4.856   3.721  2.4954  0.8147 -0.7987
 5228SOL     OW15999   2.377   2.348   4.578  0.3187 -0.1482  0.6534
 5228SOL    HW116000   2.334   2.303   4.650  0.3590  0.8556  1.3300
 5228SOL    HW216001   2.464   2.371   4.613 -0.3053  1.9584  0.9793
 5229SOL     OW16002   5.257   2.613   2.007  0.1243  0.3435 -0.2754
 5229SOL    HW116003   5.218   2.653   2.085 -0.2390  0.0335 -0.2953
 5229SOL    HW216004   5.183   2.581   1.957  0.4556 -1.4519  0.3275
 5230SOL     OW16005   5.028   2.973   2.597  0.5344  0.2813  0.3362
 5230SOL    HW116006   4.951   2.986   2.653  1.7422  2.6999  1.5965
 5230SOL    HW216007   5.090   2.925   2.652 -0.0174 -1.6976 -0.6913
 5231SOL     OW16008   5.189   2.859   1.278  0.1711  0.3799  0.1594
 5231SOL    HW116009   5.173   2.882   1.370 -1.2500  1.0255 -0.2231
 5231SOL    HW216010   5.280   2.885   1.263  0.0031  1.5715  1.0131
 5232SOL     OW16011   1.093   1.758   0.408 -0.1841  1.0542  0.5285
 5232SOL    HW116012   1.048   1.793   0.331  1.8176  3.2256  0.2064
 5232SOL    HW216013   1.036   1.782   0.482 -0.9216  1.1954 -0.0739
 5233SOL     OW16014   4.025   0.552   1.077  0.0837 -0.5566  0.2305
 5233SOL    HW116015   3.930   0.540   1.067 -0.2535  0.2160  2.0998
 5233SOL    HW216016   4.041   0.542   1.171  1.7355  0.1507  0.0672
 5234SOL     OW16017   3.316   4.129   2.811 -0.1022  0.2585  0.3255
 5234SOL    HW116018   3.263   4.198   2.851 -2.2561 -0.2685 -1.4532
 5234SOL    HW216019   3.317   4.151   2.718  1.1265 -0.8972  0.0345
 5235SOL     OW16020   0.778   1.290   1.930  0.2844 -0.8489  0.3158
 5235SOL    HW116021   0.847   1.301   1.995  0.1354  0.7254  0.2281
 5235SOL    HW216022   0.749   1.378   1.909 -2.3463 -1.4801  0.9456
 5236SOL     OW16023   2.483   4.130   1.093 -0.5364 -0.2983  0.0778
 5236SOL    HW116024   2.490   4.083   1.010  1.6292  0.3874 -0.2029
 5236SOL    HW216025   2.491   4.222   1.069 -0.0160 -0.0804  1.0183
 5237SOL     OW16026   2.113   1.640   1.542 -0.5831  1.1249 -0.0447
 5237SOL    HW116027   2.087   1.579   1.612  0.4202  1.2513  0.4540
 5237SOL    HW216028   2.081   1.725   1.572 -1.5026  0.9419 -0.4802
 5238SOL     OW16029   3.452   2.467   0.680  1.0818 -0.1150  0.1362
 5238SOL    HW116030   3.498   2.550   0.681  0.5614  0.2304 -1.2213
 5238SOL    HW216031   3.496   2.416   0.612  2.2956 -1.5360  1.8912
 5239SOL     OW16032   1.825   0.773   2.016  0.1786  0.0164 -0.1030
 5239SOL    HW116033   1.765   0.699   2.016 -0.4097  0.4920 -0.4073
 5239SOL    HW216034   1.912   0.733   2.013 -0.0973 -0.6876  0.6995
 5240SOL     OW16035   1.500   0.540   0.071 -0.1338 -0.4094  0.1451
 5240SOL    HW116036   1.458   0.580  -0.005  0.7945 -1.3198 -0.8866
 5240SOL    HW216037   1.444   0.466   0.093  0.0863 -0.6968 -0.2481
 5241SOL     OW16038   1.159   4.553   3.318 -0.6810  0.0537  0.3020
 5241SOL    HW116039   1.176   4.514   3.232 -0.0882  0.6614  0.1369
 5241SOL    HW216040   1.150   4.479   3.377  4.7226 -0.4838  0.9042
 5242SOL     OW16041   1.857   0.005   5.104  0.1552  0.1075 -0.6559
 5242SOL    HW116042   1.815  -0.048   5.036  0.2173  1.6443 -1.9358
 5242SOL    HW216043   1.839   0.096   5.079 -2.8908  0.8794  3.2269
 5243SOL     OW16044   4.247   5.536   0.614  0.2769 -0.5666 -0.0581
 5243SOL    HW116045   4.236   5.614   0.668 -1.3347 -0.7644 -0.0536
 5243SOL    HW216046   4.334   5.544   0.578  0.0840  1.3192 -0.1771
 5244SOL     OW16047   2.577   1.115   4.784 -0.4316 -0.0387  0.1824
 5244SOL    HW116048   2.640   1.182   4.757  0.0486 -0.8401 -0.7601
 5244SOL    HW216049   2.578   1.118   4.879 -0.6344  1.4765  0.1631
 5245SOL     OW16050   0.962   1.720   0.695  0.4958  0.3228  0.3866
 5245SOL    HW116051   1.038   1.665   0.713  0.3987  0.1280  0.2049
 5245SOL    HW216052   0.981   1.802   0.739  0.5813  0.0961  0.7731
 5246SOL     OW16053   1.968   2.930   1.857  0.3709  0.1820  0.0109
 5246SOL    HW116054   1.987   2.860   1.794  3.2098  0.3853  0.4809
 5246SOL    HW216055   1.956   2.885   1.941 -0.0935  0.1184 -0.0897
 5247SOL     OW16056   0.684   4.931   2.478  0.8501 -0.6227 -0.0435
 5247SOL    HW116057   0.710   4.839   2.484  1.0192 -0.5610  0.2168
 5247SOL    HW216058   0.601   4.936   2.525 -0.4128 -1.0990 -2.1018
 5248SOL     OW16059   3.899   3.935   1.797  0.0388 -0.1389 -0.0966
 5248SOL    HW116060   3.913   3.985   1.716 -1.4192 -0.6858 -0.7135
 5248SOL    HW216061   3.950   3.981   1.863  1.2286  0.3511 -1.3104
 5249SOL     OW16062   4.928   0.666   0.781 -0.3156  0.1402  0.0871
 5249SOL    HW116063   4.980   0.589   0.760  1.2806  1.0476  0.4992
 5249SOL    HW216064   4.900   0.652   0.872 -0.7216 -0.3067 -0.1035
 5250SOL     OW16065   0.624   0.639   3.083 -0.0374 -0.2350  0.2835
 5250SOL    HW116066   0.650   0.677   3.167 -0.2538 -1.0462  0.7207
 5250SOL    HW216067   0.542   0.683   3.061 -0.4450 -0.6638  0.9396
 5251SOL     OW16068   1.417   5.443   1.660  0.6450  0.2159  0.2914
 5251SOL    HW116069   1.452   5.523   1.700  0.0121  0.1574  0.9745
 5251SOL    HW216070   1.409   5.381   1.732  1.1193 -0.4754 -0.2309
 5252SOL     OW16071   0.911   3.008   0.698 -0.4222 -0.3335  0.3062
 5252SOL    HW116072   0.831   2.966   0.668  0.9850 -2.0757 -1.2656
 5252SOL    HW216073   0.941   2.954   0.772  0.2502 -0.8045 -0.3021
 5253SOL     OW16074   2.489   1.818   2.975 -0.5718 -0.5535  0.2455
 5253SOL    HW116075   2.396   1.837   2.961 -0.2888  1.7450  1.0117
 5253SOL    HW216076   2.507   1.852   3.063  1.0430 -0.7028  0.0009
 5254SOL     OW16077   0.727   5.232   0.772 -0.5898 -0.3134  0.0701
 5254SOL    HW116078   0.678   5.167   0.822  0.3116 -0.2675  1.0589
 5254SOL    HW216079   0.803   5.185   0.739 -2.0655 -0.8167 -2.9023
 5255SOL     OW16080   3.705   2.304   5.341 -0.0590 -0.0610 -0.0152
 5255SOL    HW116081   3.691   2.211   5.325 -0.9474  0.3216 -1.7130
 5255SOL    HW216082   3.619   2.338   5.367  0.4219  0.1710  1.3465
 5256SOL     OW16083   1.844   0.493   4.892 -0.3416 -0.0290 -0.5670
 5256SOL    HW116084   1.929   0.532   4.914 -0.1794 -1.2169  1.1421
 5256SOL    HW216085   1.832   0.424   4.957 -2.2743 -0.4128 -1.2596
 5257SOL     OW16086   1.174   4.304   3.450 -0.3600  0.2091  0.2078
 5257SOL    HW116087   1.268   4.319   3.448 -0.4473  0.7142 -0.0632
 5257SOL    HW216088   1.153   4.299   3.544  0.3605 -2.7001  0.3324
 5258SOL     OW16089   4.388   1.079   0.055  0.0534 -0.2033  0.3147
 5258SOL    HW116090   4.325   1.151   0.048  1.4647  1.2005  1.1920
 5258SOL    HW216091   4.417   1.082   0.146 -0.1254 -2.1584  0.4667
 5259SOL     OW16092   1.911   1.537   0.024  0.2775 -0.1301  0.0320
 5259SOL    HW116093   1.974   1.513  -0.045  0.6561  0.2690  0.2350
 5259SOL    HW216094   1.880   1.623  -0.002 -1.2650 -0.9039 -0.8245
 5260SOL     OW16095   0.844   4.565   0.693 -0.0945  0.0988  0.3027
 5260SOL    HW116096   0.837   4.514   0.612 -0.7663 -0.1821  0.5310
 5260SOL    HW216097   0.788   4.519   0.755 -0.6048  1.0435  0.5534
 5261SOL     OW16098   2.822   3.219   0.293 -0.3181  0.3945 -0.2163
 5261SOL    HW116099   2.880   3.292   0.271  0.2639  0.6801  2.0145
 5261SOL    HW216100   2.796   3.236   0.384  1.2844 -3.0509  1.0404
 5262SOL     OW16101   2.585   4.971   1.507  0.6670  0.4421 -0.2011
 5262SOL    HW116102   2.570   4.909   1.578  2.0929  0.7849  0.4362
 5262SOL    HW216103   2.566   4.922   1.427  0.7958 -0.5025  0.3363
 5263SOL     OW16104   1.274   2.561   3.515  0.0661 -0.3098 -0.2032
 5263SOL    HW116105   1.211   2.499   3.553  0.7088 -0.6254  0.3750
 5263SOL    HW216106   1.353   2.509   3.500  1.3190  0.7267  2.1709
 5264SOL     OW16107   2.563   0.985   0.386  0.1954 -0.2572 -1.0163
 5264SOL    HW116108   2.486   0.956   0.336 -1.7173  2.5115  0.0958
 5264SOL    HW216109   2.542   0.965   0.477  1.4905 -0.7757 -0.8033
 5265SOL     OW16110   4.146   5.048   3.833  0.2671 -0.1291 -0.3470
 5265SOL    HW116111   4.224   5.029   3.885 -0.2309  1.0335  0.8644
 5265SOL    HW216112   4.180   5.081   3.750  1.1082  1.6048  0.6377
 5266SOL     OW16113   0.850   2.563   0.559 -0.6649 -0.3270 -0.6174
 5266SOL    HW116114   0.922   2.501   0.548 -0.9902 -0.7500 -0.3342
 5266SOL    HW216115   0.782   2.532   0.498 -0.8192 -0.2368 -0.4913
 5267SOL     OW16116   3.071   4.911   0.932 -0.2972 -0.1236  0.1972
 5267SOL    HW116117   3.122   4.831   0.946 -0.0353 -0.0604 -0.3793
 5267SOL    HW216118   3.023   4.895   0.851 -0.8863 -0.0194  0.5155
 5268SOL     OW16119   1.618   5.239   2.164  0.2175 -0.5936 -0.2830
 5268SOL    HW116120   1.567   5.209   2.240 -0.4091 -0.0976 -0.4994
 5268SOL    HW216121   1.665   5.161   2.134 -0.4804 -1.0833 -0.1305
 5269SOL     OW16122   0.175   1.096   1.779 -0.1864 -0.1003  0.3971
 5269SOL    HW116123   0.090   1.108   1.736 -0.8531  0.0203  1.7210
 5269SOL    HW216124   0.181   1.170   1.840  1.1454  0.2274 -0.0917
 5270SOL     OW16125   2.706   3.031   0.138 -0.2805 -0.5813 -0.4065
 5270SOL    HW116126   2.760   2.953   0.149 -1.9611 -1.7031  0.1206
 5270SOL    HW216127   2.757   3.101   0.180  1.9156 -1.0239 -2.1329
 5271SOL     OW16128   4.979   3.154   4.185  0.5814  0.2619  0.3610
 5271SOL    HW116129   4.985   3.077   4.241  0.7417  0.3265  0.4318
 5271SOL    HW216130   4.895   3.144   4.140  0.8902 -0.2852 -0.1103
 5272SOL     OW16131   0.505   2.479   1.632  0.0275 -0.1153  0.2116
 5272SOL    HW116132   0.507   2.488   1.728  0.8007 -0.0126  0.1921
 5272SOL    HW216133   0.423   2.434   1.614 -1.1530  1.7341  0.7520
 5273SOL     OW16134   1.628   2.751   1.795 -0.8547 -0.0978  0.2516
 5273SOL    HW116135   1.704   2.699   1.769 -1.4731 -1.1833  0.5464
 5273SOL    HW216136   1.621   2.738   1.890  0.0536  2.0226  0.6567
 5274SOL     OW16137   4.318   2.451   4.215  0.0540  0.0045  0.3421
 5274SOL    HW116138   4.290   2.378   4.270 -0.1871 -0.0281  0.1807
 5274SOL    HW216139   4.246   2.463   4.153 -0.6781  1.4666  1.4061
 5275SOL     OW16140   3.586   0.235   3.336 -0.2646 -0.0375 -0.0410
 5275SOL    HW116141   3.535   0.309   3.367  0.5215  0.7934 -0.6697
 5275SOL    HW216142   3.529   0.159   3.348 -1.3556  0.7642 -0.0457
 5276SOL     OW16143   2.014   2.253   1.547  0.5421 -0.0432  0.6567
 5276SOL    HW116144   2.046   2.253   1.457 -1.1837 -1.1391 -0.0171
 5276SOL    HW216145   2.091   2.231   1.600  1.4018 -0.2653 -0.6427
 5277SOL     OW16146   4.213   4.942   3.125  0.5959  0.6727 -0.6027
 5277SOL    HW116147   4.305   4.964   3.136  0.6601 -0.0282  0.4295
 5277SOL    HW216148   4.198   4.946   3.031  1.8331  0.2537 -0.8336
 5278SOL     OW16149   2.498   0.376   2.928 -1.3994 -0.3042  0.3263
 5278SOL    HW116150   2.590   0.402   2.921 -0.9889 -1.4656  1.1572
 5278SOL    HW216151   2.473   0.401   3.017 -1.4484 -1.3057  0.5983
 5279SOL     OW16152   5.293   5.319   3.875  0.0359 -0.5710 -0.2410
 5279SOL    HW116153   5.259   5.406   3.895 -2.3284 -1.0868 -1.6856
 5279SOL    HW216154   5.239   5.259   3.927  1.9424 -1.2241  1.1028
 5280SOL     OW16155   2.342   4.900   0.507  0.0160 -0.4651 -0.2003
 5280SOL    HW116156   2.266   4.871   0.456 -0.1705 -0.1041 -0.1320
 5280SOL    HW216157   2.413   4.906   0.443 -0.3533  0.5382 -0.5407
 5281SOL     OW16158   4.635   0.471   2.206  0.5976  0.4768 -0.3552
 5281SOL    HW116159   4.603   0.540   2.149 -0.0884  0.0488 -0.5040
 5281SOL    HW216160   4.557   0.419   2.227  1.2361 -0.7485 -0.9361
 5282SOL     OW16161   1.603   3.427   4.448  0.4096 -0.1164 -0.1158
 5282SOL    HW116162   1.609   3.520   4.426 -0.9460 -0.1252 -0.5758
 5282SOL    HW216163   1.554   3.388   4.375  1.3185 -1.2744 -0.1376
 5283SOL     OW16164   1.771   3.587   5.072  0.0250 -0.7474  0.4714
 5283SOL    HW116165   1.795   3.597   4.980 -0.3201 -0.9538  0.3567
 5283SOL    HW216166   1.852   3.605   5.120  0.3455 -1.1669  0.1021
 5284SOL     OW16167   1.839   0.613   3.496 -0.2946  0.5760  0.0679
 5284SOL    HW116168   1.811   0.620   3.587 -0.9958 -0.1789 -0.0783
 5284SOL    HW216169   1.765   0.646   3.446 -1.7764 -3.0426 -0.4140
 5285SOL     OW16170   3.510   4.139   0.054  0.0920  0.3079 -0.0198
 5285SOL    HW116171   3.494   4.094   0.137 -1.3953  1.5019  0.3872
 5285SOL    HW216172   3.569   4.211   0.078  2.0710 -1.0432 -0.5812
 5286SOL     OW16173   4.432   1.913   5.425 -0.0872 -0.5235  0.4140
 5286SOL    HW116174   4.478   1.829   5.418  2.8800  1.0591 -1.1763
 5286SOL    HW216175   4.378   1.918   5.347 -0.6131 -1.1350  0.7378
 5287SOL     OW16176   5.264   0.062   1.550  0.3545 -0.2525 -0.3276
 5287SOL    HW116177   5.349   0.031   1.522  0.6530  0.9393 -0.7977
 5287SOL    HW216178   5.281   0.148   1.590 -0.7585  0.6014 -1.5851
 5288SOL     OW16179   5.529   0.579   2.152  0.4065 -0.0981  0.6502
 5288SOL    HW116180   5.496   0.626   2.229 -0.4660 -1.7655  1.3520
 5288SOL    HW216181   5.602   0.527   2.185 -0.5372 -1.5247  0.6242
 5289SOL     OW16182   3.345   2.616   1.826 -0.2411  0.3690 -0.3655
 5289SOL    HW116183   3.258   2.650   1.848 -1.0526  0.1767 -2.9961
 5289SOL    HW216184   3.401   2.694   1.823 -1.2077  1.0448 -2.3779
 5290SOL     OW16185   0.804   1.649   3.640 -0.1283  0.2365  0.5326
 5290SOL    HW116186   0.874   1.585   3.625  0.5530  1.0325  0.2599
 5290SOL    HW216187   0.729   1.596   3.668  1.1256 -0.5052  2.7634
 5291SOL     OW16188   3.209   2.835   4.243  0.5844  0.3963  0.6189
 5291SOL    HW116189   3.124   2.792   4.256  1.2119 -1.5251 -1.0245
 5291SOL    HW216190   3.271   2.762   4.240  1.9593  1.5813 -0.6651
 5292SOL     OW16191   3.637   5.169   3.334 -0.3043  0.0723 -0.7388
 5292SOL    HW116192   3.652   5.089   3.283 -0.3136 -0.1723 -0.3594
 5292SOL    HW216193   3.678   5.151   3.419 -0.4217  0.4226 -0.6080
 5293SOL     OW16194   5.358   1.357   1.114 -0.8050  0.3793 -0.2358
 5293SOL    HW116195   5.306   1.277   1.110  0.7122 -0.7237  0.8637
 5293SOL    HW216196   5.375   1.380   1.023 -3.4797  1.0049 -0.6416
 5294SOL     OW16197   1.866   1.272   2.107 -0.0461 -0.4917  0.3232
 5294SOL    HW116198   1.854   1.184   2.071 -0.3684 -0.2380 -0.2060
 5294SOL    HW216199   1.915   1.319   2.040  0.4971 -0.3855  0.7890
 5295SOL     OW16200   0.814   4.961   0.065  0.4864  0.1969  0.2053
 5295SOL    HW116201   0.726   4.946   0.031  0.0648 -0.8862  1.6540
 5295SOL    HW216202   0.804   5.036   0.124  1.4026  2.6981 -2.5614
 5296SOL     OW16203   2.665   3.273   3.170 -0.0397 -0.2647  0.1953
 5296SOL    HW116204   2.659   3.177   3.173  0.0940 -0.4244 -2.2530
 5296SOL    HW216205   2.759   3.291   3.173 -0.0248 -0.2735 -0.1744
 5297SOL     OW16206   2.947   0.774   3.989 -0.5481  0.1970 -0.1739
 5297SOL    HW116207   2.894   0.815   3.921 -0.2331  1.5553  0.3677
 5297SOL    HW216208   3.021   0.736   3.943 -1.3072 -0.5811 -0.7886
 5298SOL     OW16209   0.293   3.151   1.324 -0.3823 -0.2633  0.0011
 5298SOL    HW116210   0.384   3.131   1.302 -0.2621 -0.5996  0.7811
 5298SOL    HW216211   0.268   3.085   1.389 -1.0526  0.0706  0.0953
 5299SOL     OW16212   4.535   2.617   1.863  0.1878 -0.6275 -0.1968
 5299SOL    HW116213   4.618   2.643   1.904  0.8611 -1.1151 -1.1892
 5299SOL    HW216214   4.547   2.525   1.841 -0.5940 -0.6832 -0.4147
 5300SOL     OW16215   0.449   5.078   1.972 -0.2308  0.1340 -0.1766
 5300SOL    HW116216   0.404   5.161   1.961 -0.3630  0.1839  0.6703
 5300SOL    HW216217   0.541   5.102   1.985 -0.3408  0.1863  0.5501
 5301SOL     OW16218   1.206   0.379   2.930  0.2641  0.1000  0.3325
 5301SOL    HW116219   1.150   0.439   2.979 -0.7358 -1.0172  0.5772
 5301SOL    HW216220   1.165   0.372   2.844  0.9223  0.5134 -0.0232
 5302SOL     OW16221   3.299   2.355   1.749  0.2989  0.0744  0.4260
 5302SOL    HW116222   3.298   2.313   1.663  3.5281 -1.6129  1.0474
 5302SOL    HW216223   3.338   2.441   1.734 -1.5808  0.8773 -0.1066
 5303SOL     OW16224   1.657   0.584   2.622 -0.4028 -0.1435  0.2872
 5303SOL    HW116225   1.734   0.544   2.662  0.5002 -0.1359 -1.3821
 5303SOL    HW216226   1.603   0.510   2.595 -0.2123 -0.1706 -0.0126
 5304SOL     OW16227   4.015   3.268   4.909 -0.3733  0.3049 -0.4632
 5304SOL    HW116228   4.045   3.209   4.979  1.0810  0.0083 -1.2881
 5304SOL    HW216229   4.086   3.267   4.845 -1.3285  1.1852 -1.5861
 5305SOL     OW16230   4.306   1.798   4.946  0.0570  0.1192  0.4777
 5305SOL    HW116231   4.372   1.844   5.000 -0.1783  2.6841 -1.2435
 5305SOL    HW216232   4.231   1.858   4.945 -0.2319 -0.2072 -1.9969
 5306SOL     OW16233   5.253   2.585   0.393  0.5114 -0.2622  0.2471
 5306SOL    HW116234   5.257   2.524   0.467  1.3433  0.6920  1.0253
 5306SOL    HW216235   5.165   2.622   0.396  1.2233  1.4886  2.2518
 5307SOL     OW16236   0.582   2.792   3.545  0.1958  0.4479 -0.5170
 5307SOL    HW116237   0.632   2.867   3.513 -0.8227 -0.2458 -4.1810
 5307SOL    HW216238   0.634   2.716   3.522 -0.0236 -0.1105  0.7411
 5308SOL     OW16239   2.792   0.834   3.090  0.1015  0.1874  0.5141
 5308SOL    HW116240   2.743   0.857   3.169  0.8535 -0.4040  1.1597
 5308SOL    HW216241   2.725   0.834   3.021 -0.7200 -0.1017  1.2860
 5309SOL     OW16242   4.534   1.242   2.392  0.3510  0.4485  0.2877
 5309SOL    HW116243   4.618   1.265   2.355  1.2451 -1.3151  1.0817
 5309SOL    HW216244   4.485   1.324   2.396  2.2774  1.6359  0.4548
 5310SOL     OW16245   3.938   1.357   2.709 -0.8990 -0.6450 -0.6211
 5310SOL    HW116246   3.889   1.278   2.686 -0.6071 -0.6806 -1.1290
 5310SOL    HW216247   4.004   1.366   2.640 -0.5447 -0.2892 -0.2421
 5311SOL     OW16248   2.155   5.507   2.456  0.9177  0.1715  0.2691
 5311SOL    HW116249   2.214   5.560   2.403  0.9734  1.0891  1.2097
 5311SOL    HW216250   2.167   5.540   2.545 -2.8438  2.2141  0.2136
 5312SOL     OW16251   3.706   1.616   3.614  0.0827 -0.1707  0.1106
 5312SOL    HW116252   3.690   1.563   3.536 -0.0729 -2.6769  1.7405
 5312SOL    HW216253   3.620   1.653   3.636 -0.0256 -0.0889 -0.4273
 5313SOL     OW16254   0.216   3.175   2.330  0.3716 -0.3036  0.2004
 5313SOL    HW116255   0.228   3.142   2.241 -0.8743 -0.0331 -0.0872
 5313SOL    HW216256   0.121   3.183   2.340  0.5654  1.8287  0.7539
 5314SOL     OW16257   0.690   2.993   1.515 -0.7063  0.7448 -0.2994
 5314SOL    HW116258   0.609   2.942   1.526 -0.8647  1.0893  0.1969
 5314SOL    HW216259   0.746   2.964   1.587 -0.4640  0.6442 -0.5314
 5315SOL     OW16260   2.465   0.468   3.434 -0.1403 -0.2883 -0.1975
 5315SOL    HW116261   2.538   0.474   3.372 -0.9369 -0.2221 -1.1363
 5315SOL    HW216262   2.394   0.427   3.384 -0.5704 -0.9017  0.8756
 5316SOL     OW16263   1.899   1.747   2.216  0.3288 -0.2328  0.0369
 5316SOL    HW116264   1.901   1.675   2.279  0.6746  0.7039  1.1348
 5316SOL    HW216265   1.820   1.732   2.164 -1.1483  0.0934  2.0848
 5317SOL     OW16266   0.579   1.417   3.594 -0.5498  0.0292  0.0456
 5317SOL    HW116267   0.496   1.391   3.634 -0.8779 -0.5291 -0.9583
 5317SOL    HW216268   0.556   1.443   3.505  0.3256  0.0253 -0.1918
 5318SOL     OW16269   1.097   5.192   3.941 -0.5686  0.3032  0.3239
 5318SOL    HW116270   1.129   5.281   3.956 -2.6534  1.3487 -0.9115
 5318SOL    HW216271   1.034   5.176   4.010 -0.1138 -0.2981  0.6161
 5319SOL     OW16272   1.602   2.431   2.797  0.3879 -0.2987 -0.3775
 5319SOL    HW116273   1.696   2.415   2.808  0.1720  0.0317  2.9802
 5319SOL    HW216274   1.562   2.396   2.877 -2.2711  0.3113 -1.3297
 5320SOL     OW16275   5.169   0.740   4.623  0.1962 -0.1357 -0.6282
 5320SOL    HW116276   5.221   0.782   4.692 -0.1673 -0.3939 -0.1836
 5320SOL    HW216277   5.129   0.664   4.667  0.1030 -0.4049 -1.1740
 5321SOL     OW16278   2.799   1.834   2.923 -0.2119  0.5933 -0.0435
 5321SOL    HW116279   2.802   1.748   2.882  2.0730  0.5585  0.0763
 5321SOL    HW216280   2.784   1.817   3.016 -0.2910  0.3752 -0.0972
 5322SOL     OW16281   1.047   0.473   1.731 -0.1656 -0.1831  0.5134
 5322SOL    HW116282   1.049   0.534   1.804  0.4671  0.6897 -0.2107
 5322SOL    HW216283   1.122   0.416   1.745 -0.0690 -0.0413  0.5716
 5323SOL     OW16284   3.783   3.563   2.749 -0.3227 -0.0142  0.1931
 5323SOL    HW116285   3.840   3.553   2.825 -1.7298  0.5032  1.3722
 5323SOL    HW216286   3.712   3.501   2.764  0.3410 -1.3235 -1.7103
 5324SOL     OW16287   5.458   3.243   1.715  0.1011 -0.5152  0.3155
 5324SOL    HW116288   5.375   3.289   1.702  0.9120  0.5966 -1.3124
 5324SOL    HW216289   5.502   3.292   1.784 -0.6240 -1.1946  1.2870
 5325SOL     OW16290   4.071   1.307   2.108 -0.2193 -0.6286 -0.2007
 5325SOL    HW116291   4.121   1.229   2.133  3.7911  1.7873  0.1519
 5325SOL    HW216292   4.063   1.357   2.190 -3.1941 -0.7604 -0.3017
 5326SOL     OW16293   1.724   4.689   2.077  0.2383 -0.0296 -0.2756
 5326SOL    HW116294   1.757   4.669   1.990 -0.6055  0.1908 -0.6599
 5326SOL    HW216295   1.801   4.718   2.126  0.8707 -1.0001 -0.6808
 5327SOL     OW16296   3.675   4.540   5.131  0.7845 -0.4423 -0.3604
 5327SOL    HW116297   3.679   4.445   5.138 -1.3111 -0.5134  0.2007
 5327SOL    HW216298   3.601   4.557   5.073  0.2151  0.8815  0.7118
 5328SOL     OW16299   5.504   4.663   0.857  0.1235  0.3459  0.2176
 5328SOL    HW116300   5.597   4.678   0.876  0.7805 -3.6828  1.0397
 5328SOL    HW216301   5.492   4.694   0.768  2.0645  1.6103  0.3501
 5329SOL     OW16302   1.769   4.796   4.911  0.1558  0.0710  0.2610
 5329SOL    HW116303   1.673   4.795   4.910 -0.0133 -0.1471  3.8675
 5329SOL    HW216304   1.794   4.710   4.944  1.7575 -0.4882 -2.1819
 5330SOL     OW16305   0.663   2.322   3.735 -0.2381  0.9805  0.3124
 5330SOL    HW116306   0.626   2.397   3.782 -0.0085  1.1104  0.2899
 5330SOL    HW216307   0.717   2.277   3.800 -2.1445 -0.4806  0.9786
 5331SOL     OW16308   5.342   0.235   4.347  0.8222  0.0686 -0.2446
 5331SOL    HW116309   5.345   0.200   4.258 -0.3822 -0.5729 -0.0530
 5331SOL    HW216310   5.397   0.175   4.398  0.8493 -0.0432 -0.4051
 5332SOL     OW16311   0.652   4.403   0.842  0.2479  0.4437 -0.0441
 5332SOL    HW116312   0.719   4.356   0.891  0.4577  0.2470 -0.5142
 5332SOL    HW216313   0.595   4.441   0.910  0.5006  0.1339  0.3473
 5333SOL     OW16314   0.143   3.044   2.996  0.3459  0.0298 -0.3063
 5333SOL    HW116315   0.151   3.045   2.901  0.6443  0.0932 -0.2832
 5333SOL    HW216316   0.224   3.003   3.026  0.4242  0.3572 -0.0652
 5334SOL     OW16317   0.441   0.666   3.988  0.2075 -0.2912  0.1587
 5334SOL    HW116318   0.371   0.731   3.984  1.2763  0.9390  0.7764
 5334SOL    HW216319   0.397   0.584   4.012 -1.1170  0.2608 -0.3246
 5335SOL     OW16320   4.298   1.107   2.670  0.5663 -0.1209 -0.4582
 5335SOL    HW116321   4.325   1.163   2.742  1.2240 -1.2656  0.2120
 5335SOL    HW216322   4.379   1.068   2.638  0.1138 -0.7785 -0.8251
 5336SOL     OW16323   5.119   1.581   3.820 -0.3790 -0.4173 -0.3819
 5336SOL    HW116324   5.122   1.486   3.822  0.0468 -0.3996  0.4168
 5336SOL    HW216325   5.193   1.608   3.766  0.8041 -0.5063  1.1294
 5337SOL     OW16326   3.164   4.645   0.973 -0.2754  0.6622  0.3735
 5337SOL    HW116327   3.253   4.623   0.944  0.0236  2.3124 -0.0456
 5337SOL    HW216328   3.108   4.611   0.903  0.1514  1.0318 -0.1557
 5338SOL     OW16329   0.285   1.140   4.191 -0.0382  0.2984  0.0329
 5338SOL    HW116330   0.282   1.096   4.275 -0.5226 -1.6017 -0.9233
 5338SOL    HW216331   0.208   1.197   4.190 -0.3970 -0.1713  0.6065
 5339SOL     OW16332   4.512   4.476   3.731 -0.8383 -0.2674 -0.3736
 5339SOL    HW116333   4.542   4.460   3.641 -0.2890 -0.0754 -0.2285
 5339SOL    HW216334   4.523   4.392   3.775  0.8575  0.1509  0.0564
 5340SOL     OW16335   1.540   2.730   1.366 -0.5065 -0.5344  0.5694
 5340SOL    HW116336   1.456   2.722   1.322 -0.1177  0.0356 -0.3068
 5340SOL    HW216337   1.597   2.774   1.303  0.1293  0.1348  1.5662
 5341SOL     OW16338   0.038   3.420   1.889  0.2320 -0.0469 -0.1164
 5341SOL    HW116339   0.130   3.396   1.876  0.2887  1.6319 -4.2339
 5341SOL    HW216340   0.037   3.515   1.880 -1.8453  0.0329  0.5528
 5342SOL     OW16341   5.295   4.020   4.406 -0.1686 -0.1938  0.0890
 5342SOL    HW116342   5.321   3.958   4.474 -0.9480 -1.5589 -0.7992
 5342SOL    HW216343   5.323   3.979   4.324 -0.4345  0.7807 -0.5094
 5343SOL     OW16344   2.938   2.612   3.571 -0.0467 -0.4183 -0.3825
 5343SOL    HW116345   2.862   2.657   3.607  0.4203 -0.4484  0.6580
 5343SOL    HW216346   2.974   2.562   3.644  1.1844 -0.1238 -0.7629
 5344SOL     OW16347   2.184   4.150   4.333 -0.5787  0.0642 -0.2050
 5344SOL    HW116348   2.138   4.233   4.342  1.4941  1.4163 -1.2155
 5344SOL    HW216349   2.250   4.151   4.402 -0.2931 -0.5660 -0.4523
 5345SOL     OW16350   0.183   4.300   1.987  0.2948 -0.2557  0.1192
 5345SOL    HW116351   0.209   4.384   1.950 -0.2548 -0.4660 -0.7751
 5345SOL    HW216352   0.262   4.267   2.030  1.2131 -0.3681 -1.5612
 5346SOL     OW16353   2.450   3.583   1.224  0.3829 -0.0213 -0.1529
 5346SOL    HW116354   2.387   3.523   1.183  1.2886 -0.1410 -1.4245
 5346SOL    HW216355   2.535   3.555   1.191  0.9981  0.8551  0.6363
 5347SOL     OW16356   0.290   3.297   1.851  0.4453  0.1083 -0.0114
 5347SOL    HW116357   0.364   3.255   1.895  1.4776  0.8768 -0.9530
 5347SOL    HW216358   0.320   3.310   1.761 -0.6972  0.7668 -0.3144
 5348SOL     OW16359   0.466   5.344   3.609  0.1583  0.2694  0.5442
 5348SOL    HW116360   0.504   5.285   3.674 -0.1135  0.8270  1.2192
 5348SOL    HW216361   0.488   5.304   3.524  0.6296 -0.3909  0.9707
 5349SOL     OW16362   3.281   1.271   1.457 -0.4445 -0.7591  1.1304
 5349SOL    HW116363   3.285   1.269   1.553 -1.8204 -0.1459  1.2248
 5349SOL    HW216364   3.365   1.235   1.429  0.4982  0.2118  2.5691
 5350SOL     OW16365   3.766   4.185   2.682  0.2533  0.8321  0.2622
 5350SOL    HW116366   3.738   4.114   2.740  4.4594  0.4458  2.1670
 5350SOL    HW216367   3.785   4.258   2.741  1.3427  1.6240 -1.0115
 5351SOL     OW16368   1.950   3.032   4.162 -0.1060  0.2965 -0.3847
 5351SOL    HW116369   1.885   3.101   4.148  1.4350  2.1910  1.2061
 5351SOL    HW216370   1.930   2.996   4.248  1.1542  1.2272  0.3368
 5352SOL     OW16371   4.691   2.730   0.480 -0.6942 -0.5829  0.2030
 5352SOL    HW116372   4.631   2.799   0.510 -1.5557 -1.7329  1.2556
 5352SOL    HW216373   4.742   2.708   0.558  0.4539 -0.2822 -0.4502
 5353SOL     OW16374   4.803   4.874   2.283  0.1429  0.1559  0.2076
 5353SOL    HW116375   4.718   4.917   2.273 -0.8794 -1.8062 -0.0811
 5353SOL    HW216376   4.808   4.851   2.376  0.1003 -0.2314  0.1148
 5354SOL     OW16377   3.001   3.798   3.917  0.2890 -0.0957  0.0812
 5354SOL    HW116378   2.932   3.803   3.984  0.3167  0.0619  0.0973
 5354SOL    HW216379   2.956   3.761   3.841  0.0933  0.3439 -0.0257
 5355SOL     OW16380   4.803   5.368   4.802 -0.1777  0.7644 -0.3777
 5355SOL    HW116381   4.762   5.283   4.812 -1.9941  1.7470  1.2219
 5355SOL    HW216382   4.894   5.354   4.825 -0.4355 -0.7358 -0.2001
 5356SOL     OW16383   0.343   3.928   3.576 -0.1428  0.2640  0.5419
 5356SOL    HW116384   0.428   3.902   3.541  0.4669  3.6343 -0.9304
 5356SOL    HW216385   0.279   3.880   3.522  0.7829 -0.9178  0.4558
 5357SOL     OW16386   1.248   3.539   3.401  0.0717 -0.3502 -0.4071
 5357SOL    HW116387   1.215   3.506   3.317 -0.7819 -0.4311 -0.0422
 5357SOL    HW216388   1.292   3.621   3.378 -0.3263 -0.2713 -0.9116
 5358SOL     OW16389   3.128   3.627   1.659  0.3878 -0.5775 -0.3339
 5358SOL    HW116390   3.120   3.684   1.735 -0.1573  0.5465 -1.2049
 5358SOL    HW216391   3.056   3.653   1.602  1.2411 -0.8744 -1.5765
 5359SOL     OW16392   5.309   3.056   3.933 -0.0089  0.0947  0.3215
 5359SOL    HW116393   5.383   3.002   3.961 -0.0126 -0.6673 -1.0749
 5359SOL    HW216394   5.241   2.993   3.909 -0.6009  0.7641  0.2224
 5360SOL     OW16395   2.305   3.279   2.318 -0.0566  0.1544  0.4793
 5360SOL    HW116396   2.279   3.202   2.370  0.3099 -0.5291 -0.3217
 5360SOL    HW216397   2.307   3.351   2.381 -2.8719  0.0525  0.8225
 5361SOL     OW16398   0.852   3.789   3.341 -1.1433 -0.1631 -0.2510
 5361SOL    HW116399   0.923   3.848   3.368 -1.4035 -0.6516  1.5847
 5361SOL    HW216400   0.879   3.758   3.254  0.2869  0.5966 -0.1147
 5362SOL     OW16401   4.894   0.197   3.194  0.0756  0.1096  0.1516
 5362SOL    HW116402   4.962   0.260   3.172 -1.2023  1.0350 -1.4055
 5362SOL    HW216403   4.848   0.236   3.268 -1.2960  1.5574 -1.3856
 5363SOL     OW16404   4.510   1.749   4.426  0.0133 -0.3383 -0.1684
 5363SOL    HW116405   4.493   1.704   4.343 -2.5694 -1.7708  0.9842
 5363SOL    HW216406   4.545   1.834   4.401 -2.2946 -0.0206 -2.8844
 5364SOL     OW16407   3.150   0.129   0.338 -0.5190 -0.0736  0.0774
 5364SOL    HW116408   3.150   0.050   0.393  0.9275  0.3689  0.7563
 5364SOL    HW216409   3.137   0.095   0.249  0.8445 -1.1873  0.2594
 5365SOL     OW16410   0.643   2.731   2.095  0.2922  0.1343 -0.0378
 5365SOL    HW116411   0.608   2.656   2.048  0.0736  0.2850 -0.1136
 5365SOL    HW216412   0.738   2.720   2.090  0.2580 -0.2906  0.1988
 5366SOL     OW16413   0.295   4.491   4.338 -0.0907  0.0642 -0.0014
 5366SOL    HW116414   0.367   4.531   4.290 -0.0406  0.3330  0.2928
 5366SOL    HW216415   0.319   4.500   4.430  0.1533 -1.0964  0.0604
 5367SOL     OW16416   0.731   0.848   1.168 -0.1728 -0.1906  0.6258
 5367SOL    HW116417   0.710   0.913   1.234  0.1980  2.7369 -1.9036
 5367SOL    HW216418   0.823   0.865   1.147 -0.0504 -1.5881 -0.0765
 5368SOL     OW16419   0.266   5.526   3.778  0.5360  1.0199 -0.4280
 5368SOL    HW116420   0.339   5.525   3.840  0.1412 -1.9912  0.1374
 5368SOL    HW216421   0.295   5.472   3.705 -1.2844 -0.7619  0.0919
 5369SOL     OW16422   0.274   4.908   0.303  0.2201  0.0667  0.2727
 5369SOL    HW116423   0.366   4.901   0.329  0.2456 -1.4914 -0.1415
 5369SOL    HW216424   0.262   4.838   0.239 -0.9490  1.0486 -0.6369
 5370SOL     OW16425   1.470   3.927   4.779 -0.3071 -0.3569  0.2488
 5370SOL    HW116426   1.559   3.892   4.786  0.3752  0.8074 -1.8148
 5370SOL    HW216427   1.475   4.014   4.817 -0.2394  0.1732 -0.9324
 5371SOL     OW16428   1.831   1.862   1.498 -0.2406  0.1018  0.0623
 5371SOL    HW116429   1.866   1.778   1.468 -0.9907  0.1633 -1.0705
 5371SOL    HW216430   1.841   1.861   1.593 -1.6867 -1.9649  0.2586
 5372SOL     OW16431   1.034   5.132   2.662 -0.1441  0.5667 -0.0177
 5372SOL    HW116432   0.965   5.186   2.623  0.1441  0.6875 -0.3722
 5372SOL    HW216433   1.115   5.170   2.628  0.0577 -0.1235 -0.3206
 5373SOL     OW16434   3.086   0.498   1.533  0.0326  0.2410  0.1600
 5373SOL    HW116435   3.174   0.533   1.549  0.1579  0.0953 -0.1908
 5373SOL    HW216436   3.034   0.574   1.510  0.0959  0.3136  0.2571
 5374SOL     OW16437   3.591   3.379   2.801  0.1564  0.1880 -0.0734
 5374SOL    HW116438   3.506   3.394   2.843 -0.1806 -1.0508 -0.2616
 5374SOL    HW216439   3.616   3.291   2.828 -0.5509 -1.1208 -3.2185
 5375SOL     OW16440   2.740   1.350   2.689  0.3757 -0.2560  0.2466
 5375SOL    HW116441   2.753   1.300   2.770  1.5774  0.2179  0.3626
 5375SOL    HW216442   2.794   1.304   2.624  0.7209  0.3257  0.1201
 5376SOL     OW16443   5.102   2.515   1.398  0.1861 -0.6127  0.2120
 5376SOL    HW116444   5.186   2.499   1.442  0.3469  1.4351  0.7890
 5376SOL    HW216445   5.118   2.489   1.307  0.5004 -2.9631  0.8748
 5377SOL     OW16446   3.621   0.329   5.366  0.1960  0.4697 -0.3058
 5377SOL    HW116447   3.530   0.357   5.372 -0.2917 -1.1845  0.9371
 5377SOL    HW216448   3.665   0.374   5.438  0.2797  0.9636 -0.6623
 5378SOL     OW16449   1.387   5.100   4.846 -0.0849  0.0944  0.7073
 5378SOL    HW116450   1.401   5.088   4.752 -1.3511 -0.1101  0.5183
 5378SOL    HW216451   1.473   5.120   4.881  0.5201 -0.4548 -0.4041
 5379SOL     OW16452   2.164   5.229   1.698  0.1742 -0.6485  0.0764
 5379SOL    HW116453   2.239   5.185   1.738  0.1170 -1.5909 -0.8223
 5379SOL    HW216454   2.168   5.205   1.606 -1.0706 -0.4721 -0.0427
 5380SOL     OW16455   3.302   0.149   3.109 -0.5715  0.6926  0.0480
 5380SOL    HW116456   3.257   0.128   3.191  2.0008  0.2210  1.4647
 5380SOL    HW216457   3.360   0.075   3.094 -0.1646  1.3079 -1.5820
 5381SOL     OW16458   5.220   4.571   2.721  0.2329  0.2594 -0.4727
 5381SOL    HW116459   5.282   4.537   2.785 -0.6279  0.7321  0.6555
 5381SOL    HW216460   5.256   4.545   2.636  0.9698 -1.1229  0.2227
 5382SOL     OW16461   4.560   1.112   2.019 -0.1158 -0.5721  0.2250
 5382SOL    HW116462   4.608   1.035   2.048  0.2068 -0.1303  0.8650
 5382SOL    HW216463   4.537   1.093   1.928  0.5096 -1.1529  0.1841
 5383SOL     OW16464   4.845   1.396   1.617 -0.2838  0.3191  0.0567
 5383SOL    HW116465   4.757   1.372   1.646 -0.7869 -0.9487 -2.2153
 5383SOL    HW216466   4.903   1.345   1.674 -1.0876 -0.1919  0.4489
 5384SOL     OW16467   1.653   0.304   3.755 -0.4829  0.1211  0.1694
 5384SOL    HW116468   1.578   0.308   3.695 -0.7127  0.6496  0.4776
 5384SOL    HW216469   1.620   0.256   3.831 -0.6782  0.8071  0.5263
 5385SOL     OW16470   1.855   5.125   2.841  0.3411 -0.0380 -0.1012
 5385SOL    HW116471   1.767   5.102   2.870  0.3447 -0.3271 -0.3134
 5385SOL    HW216472   1.842   5.185   2.767  0.3265  0.1185  0.0270
 5386SOL     OW16473   4.335   0.541   4.550 -0.4377 -0.5509 -0.0324
 5386SOL    HW116474   4.373   0.589   4.476  0.1731  1.0875  1.2765
 5386SOL    HW216475   4.275   0.478   4.510  0.5834 -0.3772 -1.9532
 5387SOL     OW16476   0.333   2.830   1.157 -0.8038  0.0437  0.3971
 5387SOL    HW116477   0.258   2.836   1.098 -1.3060  0.6113  1.0720
 5387SOL    HW216478   0.361   2.921   1.169 -0.0536 -0.1579  0.2132
 5388SOL     OW16479   2.665   0.887   4.424 -0.3342 -0.4179  0.0661
 5388SOL    HW116480   2.646   0.882   4.518  1.5584 -0.4900  0.4825
 5388SOL    HW216481   2.643   0.977   4.400  0.8122  0.1324  0.9957
 5389SOL     OW16482   3.675   1.531   4.409 -0.3379 -0.2319 -0.3296
 5389SOL    HW116483   3.690   1.623   4.429  0.0289 -0.1190 -1.0889
 5389SOL    HW216484   3.665   1.489   4.494 -0.3451  0.4811  0.0259
 5390SOL     OW16485   2.341   2.119   2.082 -0.1380 -0.4508  0.2661
 5390SOL    HW116486   2.301   2.097   2.167  1.3096  0.1184  1.1247
 5390SOL    HW216487   2.324   2.212   2.072 -1.0509 -0.6799 -0.5138
 5391SOL     OW16488   5.081   3.972   4.172  0.2799  0.1061  0.8840
 5391SOL    HW116489   5.141   4.027   4.223  0.7454  0.3454  0.1008
 5391SOL    HW216490   5.028   4.035   4.123  1.1258 -0.1305 -0.3714
 5392SOL     OW16491   2.429   2.287   2.327  0.1001  0.2308  0.5369
 5392SOL    HW116492   2.399   2.349   2.261  0.4235 -1.6481 -1.5143
 5392SOL    HW216493   2.361   2.219   2.327  2.3383 -2.2589 -1.5406
 5393SOL     OW16494   0.830   3.068   5.131  0.7140  0.2982  0.2353
 5393SOL    HW116495   0.851   3.159   5.152 -0.1980  0.3070  1.2324
 5393SOL    HW216496   0.851   3.019   5.210 -0.3718 -0.0899  0.3010
 5394SOL     OW16497   4.444   3.406   5.199 -0.0783  0.1404  0.0699
 5394SOL    HW116498   4.441   3.344   5.272  2.0506  0.6756  0.6740
 5394SOL    HW216499   4.446   3.351   5.121  1.5673 -0.5727  0.5847
 5395SOL     OW16500   4.119   4.094   3.230 -0.2194 -0.6416 -0.0023
 5395SOL    HW116501   4.155   4.011   3.198  0.3833 -1.0933  1.7528
 5395SOL    HW216502   4.191   4.156   3.221 -1.3258  0.3488 -3.4408
 5396SOL     OW16503   1.505   1.591   3.739  0.0235 -0.2007  0.3544
 5396SOL    HW116504   1.476   1.501   3.751 -0.0347 -0.1885  0.3052
 5396SOL    HW216505   1.470   1.617   3.654 -2.9164  0.9879  1.7788
 5397SOL     OW16506   2.825   5.323   1.537  0.1328  0.2236 -0.1638
 5397SOL    HW116507   2.769   5.259   1.493 -0.0961  0.2984  0.0166
 5397SOL    HW216508   2.902   5.331   1.480  0.7395 -1.1460  0.4274
 5398SOL     OW16509   2.258   0.229   1.552 -0.3222 -0.4866  0.1205
 5398SOL    HW116510   2.244   0.142   1.516 -0.1766 -2.0986  3.4968
 5398SOL    HW216511   2.343   0.223   1.596  0.3132  1.8224 -0.6593
 5399SOL     OW16512   5.080   4.188   0.513 -0.2536 -0.5082 -0.1852
 5399SOL    HW116513   5.146   4.126   0.544 -0.8081 -1.0342 -0.0244
 5399SOL    HW216514   5.100   4.199   0.420  0.5988  0.0367  0.0577
 5400SOL     OW16515   4.719   1.317   3.261  0.6409  0.0093 -0.8397
 5400SOL    HW116516   4.805   1.348   3.290  1.2497 -1.3962 -1.0804
 5400SOL    HW216517   4.682   1.273   3.337  1.2761 -1.6825 -1.4580
 5401SOL     OW16518   2.341   1.910   0.689  0.0916 -0.2790  0.2016
 5401SOL    HW116519   2.299   1.866   0.762 -0.3347  2.4383  1.7182
 5401SOL    HW216520   2.426   1.939   0.723  1.7249 -2.4285 -1.6862
 5402SOL     OW16521   3.904   0.510   5.438 -0.1950  0.3901 -0.1426
 5402SOL    HW116522   3.884   0.451   5.511 -1.0455 -0.1857 -0.8164
 5402SOL    HW216523   3.995   0.490   5.415  0.2838  0.9868  1.1090
 5403SOL     OW16524   3.784   1.356   3.046 -0.6175  0.0179 -0.5160
 5403SOL    HW116525   3.751   1.271   3.017  0.4431 -0.0792 -1.4899
 5403SOL    HW216526   3.722   1.419   3.010 -1.6894 -0.3338  0.6167
 5404SOL     OW16527   2.528   1.716   0.911 -0.0721 -0.2100 -0.1441
 5404SOL    HW116528   2.515   1.800   0.954  0.5874  0.0247 -0.3816
 5404SOL    HW216529   2.482   1.653   0.966  1.5500 -0.0583  1.4697
 5405SOL     OW16530   0.622   1.405   0.910  0.2602 -0.1311 -0.3974
 5405SOL    HW116531   0.674   1.476   0.950  0.4242 -0.4476 -0.0382
 5405SOL    HW216532   0.553   1.450   0.862 -2.0557  0.2898  3.0071
 5406SOL     OW16533   3.940   1.819   4.999  0.2106 -0.1066  0.1207
 5406SOL    HW116534   3.845   1.816   4.984  0.2901 -1.4494 -0.2915
 5406SOL    HW216535   3.960   1.735   5.039  1.1546  0.4069  0.7449
 5407SOL     OW16536   0.099   0.547   3.489 -0.4083 -0.0698 -0.2769
 5407SOL    HW116537   0.049   0.623   3.459  0.2740 -0.0104 -1.3330
 5407SOL    HW216538   0.167   0.536   3.422  0.5332 -0.5945  0.7387
 5408SOL     OW16539   2.813   3.337   5.281 -0.3493  0.6584 -0.0729
 5408SOL    HW116540   2.822   3.286   5.361  2.1429  0.7819 -0.2067
 5408SOL    HW216541   2.817   3.428   5.310 -1.5603  0.7585 -0.1626
 5409SOL     OW16542   1.041   3.131   3.318 -0.4060  0.6067 -0.4300
 5409SOL    HW116543   0.955   3.160   3.290 -0.7054  0.1571 -0.0134
 5409SOL    HW216544   1.079   3.089   3.241 -1.4327 -1.1034 -0.0632
 5410SOL     OW16545   4.426   4.865   0.935  0.4755  0.0188  0.0642
 5410SOL    HW116546   4.344   4.821   0.910 -0.2616  1.2101  0.3028
 5410SOL    HW216547   4.431   4.853   1.030  1.3791 -1.3397 -0.1244
 5411SOL     OW16548   0.352   3.721   3.899  0.2466 -0.0523 -0.0183
 5411SOL    HW116549   0.292   3.796   3.894  0.0335 -0.1046  1.4152
 5411SOL    HW216550   0.313   3.664   3.965  1.2039 -0.7145 -0.0154
 5412SOL     OW16551   0.787   2.857   0.952 -0.3943  0.3743  0.6283
 5412SOL    HW116552   0.783   2.761   0.953 -0.3121  0.3721  1.0581
 5412SOL    HW216553   0.823   2.880   1.038 -0.5123  0.7947  0.5660
 5413SOL     OW16554   1.496   2.060   1.893 -0.5145 -0.1769 -0.4474
 5413SOL    HW116555   1.556   2.015   1.953 -0.0893 -0.5502 -1.1424
 5413SOL    HW216556   1.530   2.041   1.806 -0.4301  1.3418 -0.7769
 5414SOL     OW16557   2.631   5.024   3.435  0.0462 -0.4094  0.7033
 5414SOL    HW116558   2.665   5.019   3.346  0.0120 -1.3057  0.7387
 5414SOL    HW216559   2.707   5.005   3.491  0.0822  0.2076  0.8724
 5415SOL     OW16560   5.549   1.737   0.549  0.1412 -0.2673  0.4562
 5415SOL    HW116561   5.536   1.801   0.479  0.2498  2.4870  2.7692
 5415SOL    HW216562   5.643   1.739   0.567  0.2161 -1.4534  0.2619
 5416SOL     OW16563   3.814   0.972   2.510  0.0126 -0.2693 -0.0085
 5416SOL    HW116564   3.737   0.940   2.464 -0.4610  0.2001  0.4363
 5416SOL    HW216565   3.779   1.031   2.576  0.7855  0.2317 -0.0371
 5417SOL     OW16566   4.378   1.294   1.461  0.4724  0.0095 -0.7755
 5417SOL    HW116567   4.390   1.331   1.373  0.6003  0.4608 -0.5725
 5417SOL    HW216568   4.299   1.337   1.494  0.3176 -0.2985 -0.7392
 5418SOL     OW16569   1.299   4.096   3.141  0.5127  0.5183 -0.4162
 5418SOL    HW116570   1.385   4.054   3.149  1.4125  2.4653  0.8084
 5418SOL    HW216571   1.317   4.179   3.097 -0.6536  1.1905  0.3196
 5419SOL     OW16572   2.899   3.304   4.951 -0.2266 -0.3843  0.2572
 5419SOL    HW116573   2.891   3.308   4.855  0.2999 -0.5653  0.1970
 5419SOL    HW216574   2.994   3.312   4.967 -0.2279 -1.1540  0.7106
 5420SOL     OW16575   3.772   3.285   4.384  0.0066 -0.1436 -0.0672
 5420SOL    HW116576   3.848   3.239   4.418  1.0259  2.0306  0.8103
 5420SOL    HW216577   3.713   3.292   4.459 -0.6261 -0.9021 -0.4744
 5421SOL     OW16578   1.943   4.174   3.848 -0.3461 -0.2485 -0.0610
 5421SOL    HW116579   1.871   4.237   3.851 -0.3390 -0.2605  0.4964
 5421SOL    HW216580   1.901   4.088   3.847 -0.3662 -0.2390 -1.2719
 5422SOL     OW16581   1.931   5.138   1.455  0.8713  0.1327  0.0157
 5422SOL    HW116582   1.876   5.164   1.529  1.8284  1.2101  0.3764
 5422SOL    HW216583   1.870   5.101   1.392 -0.1053  0.1784  0.8991
 5423SOL     OW16584   2.663   0.237   4.628  0.3357  0.0847  0.0339
 5423SOL    HW116585   2.619   0.304   4.680 -1.2509 -0.4051 -0.6144
 5423SOL    HW216586   2.712   0.185   4.692 -1.3898 -0.3665  1.0482
 5424SOL     OW16587   3.714   2.686   5.248  0.1419 -0.1220  0.4969
 5424SOL    HW116588   3.648   2.652   5.308 -0.2011 -0.6063 -0.1463
 5424SOL    HW216589   3.767   2.610   5.224  2.3034  0.5816  2.6214
 5425SOL     OW16590   4.955   2.267   3.295 -0.1663 -0.2120  0.0761
 5425SOL    HW116591   4.981   2.262   3.203 -0.4902  0.4052 -0.0541
 5425SOL    HW216592   5.026   2.224   3.342  0.8804  1.0186 -0.3129
 5426SOL     OW16593   3.537   4.045   1.362  0.4886 -0.0946  0.7684
 5426SOL    HW116594   3.534   3.969   1.420 -0.2714 -0.7610 -0.1109
 5426SOL    HW216595   3.630   4.052   1.338  0.4173 -1.4744 -0.0379
 5427SOL     OW16596   1.670   5.054   0.347 -0.5017 -0.2324 -0.8332
 5427SOL    HW116597   1.617   4.978   0.323 -0.6651  0.0236 -1.2892
 5427SOL    HW216598   1.672   5.108   0.268  0.6653 -0.3615 -0.9007
 5428SOL     OW16599   4.161   0.959   4.698 -0.0346  0.0914 -0.1410
 5428SOL    HW116600   4.136   1.048   4.671 -0.6312 -0.4001 -1.3157
 5428SOL    HW216601   4.103   0.902   4.647 -1.9138 -0.9384  2.8643
 5429SOL     OW16602   4.110   4.301   2.663 -0.0892 -0.1375  0.2128
 5429SOL    HW116603   4.072   4.274   2.580  0.0302  1.2181 -0.2928
 5429SOL    HW216604   4.110   4.221   2.716  0.5832 -1.2231 -1.3549
 5430SOL     OW16605   5.442   1.106   4.157 -0.2391  0.0545  0.0998
 5430SOL    HW116606   5.519   1.156   4.182 -1.2504  0.5912  2.4958
 5430SOL    HW216607   5.459   1.017   4.188 -0.5499  0.1717  0.6264
 5431SOL     OW16608   2.539   1.315   1.183  1.1427  0.3179  0.1392
 5431SOL    HW116609   2.579   1.269   1.256  2.5879 -0.8430 -1.2931
 5431SOL    HW216610   2.613   1.355   1.137  0.3613  0.4237 -1.0719
 5432SOL     OW16611   0.168   4.591   2.529  0.5107  0.2261  0.2026
 5432SOL    HW116612   0.181   4.551   2.443  3.3132 -1.0916  1.1381
 5432SOL    HW216613   0.144   4.682   2.510  1.3963  0.0593 -1.9632
 5433SOL     OW16614   3.314   3.423   2.904 -0.1811  0.5201  0.4664
 5433SOL    HW116615   3.240   3.380   2.861 -0.5352  0.7064  0.8776
 5433SOL    HW216616   3.283   3.440   2.993  0.3371  0.6563  0.6221
 5434SOL     OW16617   3.131   5.545   4.611  0.3978  0.4832  0.3982
 5434SOL    HW116618   3.137   5.612   4.544  1.1538  0.4961  0.4692
 5434SOL    HW216619   3.056   5.570   4.665 -1.3173 -0.4540 -1.4331
 5435SOL     OW16620   1.118   3.671   4.410 -0.4057  0.5445 -0.1430
 5435SOL    HW116621   1.176   3.711   4.346 -0.4717  1.4404  0.3479
 5435SOL    HW216622   1.054   3.738   4.431 -1.3018 -0.2545 -0.2629
 5436SOL     OW16623   3.264   2.972   1.140  0.2683 -0.4163 -0.4106
 5436SOL    HW116624   3.213   3.030   1.084 -0.0774  0.8595  1.1494
 5436SOL    HW216625   3.200   2.936   1.201  1.1489  1.1879  1.5605
 5437SOL     OW16626   2.128   4.797   0.310  0.3059 -0.0041  0.4666
 5437SOL    HW116627   2.067   4.834   0.373  1.5206  1.3405  0.9055
 5437SOL    HW216628   2.095   4.826   0.225 -1.3055 -1.7810  0.4230
 5438SOL     OW16629   4.528   0.020   1.707 -0.4505 -0.3191 -0.1821
 5438SOL    HW116630   4.480   0.089   1.754  0.9994 -0.0134  0.9266
 5438SOL    HW216631   4.619   0.035   1.730  0.0066 -1.9563 -0.8162
 5439SOL     OW16632   3.162   0.258   3.572 -0.2348  0.3901 -0.1321
 5439SOL    HW116633   3.233   0.270   3.636 -0.9653 -0.1396  0.7904
 5439SOL    HW216634   3.085   0.240   3.625 -0.8695 -0.0063 -1.1740
 5440SOL     OW16635   0.469   1.442   3.977  0.1578 -0.2363  0.1326
 5440SOL    HW116636   0.437   1.473   4.062  0.4350 -0.2677  0.2470
 5440SOL    HW216637   0.563   1.454   3.980  0.2325 -0.7586  0.0447
 5441SOL     OW16638   0.874   0.890   3.288 -0.7898  0.3212 -0.5657
 5441SOL    HW116639   0.943   0.923   3.346 -1.6378 -0.2803  0.8386
 5441SOL    HW216640   0.906   0.909   3.200  0.7933  0.7777  0.0663
 5442SOL     OW16641   2.478   4.687   3.568  0.0411  0.5839 -0.2061
 5442SOL    HW116642   2.460   4.678   3.474 -0.3979 -0.6901 -0.0136
 5442SOL    HW216643   2.393   4.676   3.610  0.6086 -1.7653  0.4879
 5443SOL     OW16644   3.641   0.258   1.708  0.4093 -0.0859  0.0063
 5443SOL    HW116645   3.554   0.221   1.698  0.2929  0.5099 -1.3543
 5443SOL    HW216646   3.700   0.182   1.708  0.1534 -0.3721 -2.4921
 5444SOL     OW16647   3.146   3.480   1.064  0.1872 -0.3645 -0.1231
 5444SOL    HW116648   3.072   3.531   1.097  0.6261  0.7473 -0.8255
 5444SOL    HW216649   3.220   3.510   1.117  0.4836 -0.1255 -0.6697
 5445SOL     OW16650   4.508   3.173   1.521  0.0614  0.4651  0.1883
 5445SOL    HW116651   4.432   3.123   1.551  0.9061 -0.9527  0.0462
 5445SOL    HW216652   4.575   3.157   1.587  0.5055  1.0423 -0.1141
 5446SOL     OW16653   0.363   2.105   3.207 -0.2446  0.1762  0.5237
 5446SOL    HW116654   0.370   2.112   3.111  0.5616  0.5228  0.5970
 5446SOL    HW216655   0.355   2.011   3.223  0.2973  0.0530  0.1409
 5447SOL     OW16656   0.554   0.880   1.980  0.0765  0.0518  0.4120
 5447SOL    HW116657   0.628   0.831   1.945 -0.2764  0.0138 -0.3182
 5447SOL    HW216658   0.482   0.817   1.980 -0.3572  0.5215 -0.4400
 5448SOL     OW16659   3.643   0.867   5.527  0.7472  0.2959  0.1035
 5448SOL    HW116660   3.622   0.881   5.620 -1.6786  0.2978 -0.3796
 5448SOL    HW216661   3.672   0.952   5.496 -3.2637  1.7492 -0.2133
 5449SOL     OW16662   3.433   4.888   2.518  0.0730  0.0521  0.1427
 5449SOL    HW116663   3.502   4.886   2.585  0.6123  0.4763 -0.3953
 5449SOL    HW216664   3.449   4.810   2.465 -1.3266 -1.1982  1.4344
 5450SOL     OW16665   4.588   1.296   0.483  0.4355 -0.8616  0.6233
 5450SOL    HW116666   4.638   1.361   0.531  0.7111 -1.0300  0.5629
 5450SOL    HW216667   4.511   1.280   0.537 -1.6080  2.2821 -1.0413
 5451SOL     OW16668   2.729   2.439   2.002  0.5932 -0.1727  0.5162
 5451SOL    HW116669   2.696   2.504   1.940  0.2344  0.0516  0.9405
 5451SOL    HW216670   2.800   2.396   1.955  1.7874  1.4676  0.7085
 5452SOL     OW16671   0.002   4.374   2.810  0.4031  0.1916 -0.4669
 5452SOL    HW116672  -0.078   4.332   2.839 -0.3481  1.4809 -0.5833
 5452SOL    HW216673   0.072   4.319   2.845 -0.4942  0.3718  1.8499
 5453SOL     OW16674   2.903   1.169   0.818  0.6962  0.3237  0.2884
 5453SOL    HW116675   2.910   1.074   0.808  3.0189  0.5650 -1.3014
 5453SOL    HW216676   2.991   1.201   0.798 -0.5330  2.9661 -1.4319
 5454SOL     OW16677   2.539   1.242   1.936 -0.1858 -0.2110 -0.2688
 5454SOL    HW116678   2.617   1.236   1.879 -0.7062 -0.8053 -0.9500
 5454SOL    HW216679   2.505   1.330   1.920  1.2713  0.7004  1.3155
 5455SOL     OW16680   2.314   0.575   3.643  0.2318 -0.8833 -0.3693
 5455SOL    HW116681   2.393   0.573   3.589 -0.2757 -0.5192 -1.1417
 5455SOL    HW216682   2.251   0.625   3.591  0.2838  1.0652  1.3127
 5456SOL     OW16683   4.856   5.405   4.212 -0.5722 -0.0242  0.8562
 5456SOL    HW116684   4.784   5.469   4.213  0.0419  0.6720  1.5280
 5456SOL    HW216685   4.893   5.413   4.124  0.7925  2.0768  1.5360
 5457SOL     OW16686   1.471   2.447   5.429  0.0296 -0.2474  0.0193
 5457SOL    HW116687   1.562   2.463   5.405  0.3819 -1.8152  0.1856
 5457SOL    HW216688   1.448   2.518   5.488  1.4468 -0.3643  0.7375
 5458SOL     OW16689   3.258   5.131   5.010  0.3863 -0.2285 -0.3712
 5458SOL    HW116690   3.319   5.075   4.963 -1.4160 -2.0387 -0.6902
 5458SOL    HW216691   3.196   5.161   4.943  0.2411  0.6497  0.1371
 5459SOL     OW16692   2.965   1.829   0.218  0.1620  0.2416 -0.5580
 5459SOL    HW116693   2.920   1.913   0.212 -0.9280 -0.4430 -4.1907
 5459SOL    HW216694   2.899   1.769   0.252 -0.9048 -0.1858 -3.2181
 5460SOL     OW16695   2.732   1.447   5.472 -0.3643  0.3198 -0.1579
 5460SOL    HW116696   2.803   1.442   5.407  0.1898  3.2099  0.0959
 5460SOL    HW216697   2.775   1.423   5.554  0.0738  0.9665 -0.1857
 5461SOL     OW16698   2.517   1.114   5.515 -0.4051  0.0046  0.3806
 5461SOL    HW116699   2.570   1.040   5.544  0.4376  0.4155 -0.0606
 5461SOL    HW216700   2.521   1.176   5.587  0.4646  0.4043  0.0059
 5462SOL     OW16701   1.903   0.551   3.113  0.1143 -0.3060 -0.2869
 5462SOL    HW116702   1.937   0.628   3.158  1.0106 -0.5688 -0.5041
 5462SOL    HW216703   1.846   0.587   3.045 -1.1041  0.1039  0.8936
 5463SOL     OW16704   3.854   5.133   4.376 -0.7245  0.1677  0.1468
 5463SOL    HW116705   3.837   5.091   4.461  1.1631  0.9742  0.9776
 5463SOL    HW216706   3.861   5.226   4.397  1.1841  0.2382 -0.6213
 5464SOL     OW16707   4.530   1.079   0.310  0.0007 -0.3301  0.1976
 5464SOL    HW116708   4.521   1.016   0.382  0.0865 -0.2161  0.3079
 5464SOL    HW216709   4.549   1.162   0.353  1.0158 -0.4485  0.0075
 5465SOL     OW16710   2.578   0.176   1.905  0.8174 -0.2826  0.0307
 5465SOL    HW116711   2.521   0.130   1.843 -0.3802  0.0007  0.8846
 5465SOL    HW216712   2.629   0.236   1.850  0.2369 -0.4885 -0.7576
 5466SOL     OW16713   1.766   0.886   0.699 -0.0473 -0.4735 -0.8815
 5466SOL    HW116714   1.841   0.944   0.711 -1.7767  1.8845 -0.5668
 5466SOL    HW216715   1.792   0.803   0.739  1.8487  0.7276  0.5199
 5467SOL     OW16716   4.993   3.498   3.946  0.0602  0.0153  0.3464
 5467SOL    HW116717   5.032   3.420   3.985 -1.0291 -0.7301 -0.0166
 5467SOL    HW216718   5.039   3.509   3.863  0.7486  0.2238  0.7461
 5468SOL     OW16719   5.430   2.209   2.433 -0.0944 -0.4918  0.2538
 5468SOL    HW116720   5.365   2.193   2.364 -0.4958  0.1485  0.4828
 5468SOL    HW216721   5.382   2.202   2.515 -0.0837  0.8682  0.4014
 5469SOL     OW16722   2.916   1.815   0.549  0.2727 -0.1477 -0.6839
 5469SOL    HW116723   2.824   1.827   0.574 -0.1771 -2.7370 -0.8273
 5469SOL    HW216724   2.913   1.763   0.469  1.8612 -0.9000 -0.2970
 5470SOL     OW16725   5.535   3.781   5.118  0.1888  0.1126  0.2823
 5470SOL    HW116726   5.570   3.696   5.092  1.0262  0.4444  0.2922
 5470SOL    HW216727   5.473   3.761   5.188  0.2268 -0.5006  0.1507
 5471SOL     OW16728   3.619   0.193   1.972 -0.1018  0.8537  0.0265
 5471SOL    HW116729   3.624   0.259   1.903  0.1018  0.2364 -0.5529
 5471SOL    HW216730   3.583   0.115   1.929  1.0026  0.1367  0.3750
 5472SOL     OW16731   1.349   1.898   4.617 -0.4823  0.4898 -0.1101
 5472SOL    HW116732   1.257   1.875   4.631 -0.7619  1.2709 -0.6311
 5472SOL    HW216733   1.360   1.983   4.660  0.5632 -0.5459  1.8384
 5473SOL     OW16734   1.703   4.934   3.232  0.1798 -0.2207 -0.1759
 5473SOL    HW116735   1.627   4.876   3.243  0.6552 -1.0767 -1.2570
 5473SOL    HW216736   1.668   5.021   3.248 -0.7324 -0.7175  0.6933
 5474SOL     OW16737   4.704   0.904   4.070  0.2452  0.1271  0.0049
 5474SOL    HW116738   4.695   0.910   3.975 -1.2369  0.1580  0.1251
 5474SOL    HW216739   4.707   0.810   4.088  2.9327  0.0825 -0.2193
 5475SOL     OW16740   0.092   3.191   4.301 -0.5639 -0.0999  0.0922
 5475SOL    HW116741   0.071   3.264   4.361  1.8430  0.3869  0.4353
 5475SOL    HW216742   0.119   3.120   4.359 -1.7379 -0.8935 -0.3042
 5476SOL     OW16743   2.569   1.818   3.738  0.4089  0.0545  0.0942
 5476SOL    HW116744   2.552   1.909   3.764  1.5621  0.6389 -1.1001
 5476SOL    HW216745   2.491   1.793   3.688  0.5665  0.7795 -0.5263
 5477SOL     OW16746   1.653   0.422   1.846  0.1975 -0.3351 -0.4658
 5477SOL    HW116747   1.681   0.418   1.755 -0.0286 -1.1769 -0.5050
 5477SOL    HW216748   1.723   0.380   1.896 -0.3326 -1.2120 -0.4216
 5478SOL     OW16749   1.025   2.447   4.702 -0.1231 -0.3287  0.0501
 5478SOL    HW116750   1.049   2.494   4.782  0.5363 -0.9981  0.2558
 5478SOL    HW216751   1.107   2.409   4.671  0.1997  2.1134 -2.4529
 5479SOL     OW16752   0.604   5.449   1.861  0.3916 -0.5431  0.3264
 5479SOL    HW116753   0.546   5.514   1.820  0.5806  0.5528  1.7239
 5479SOL    HW216754   0.673   5.434   1.796 -0.1148  0.0327 -0.3541
 5480SOL     OW16755   0.109   5.131   4.189  0.1756 -0.6419 -0.4015
 5480SOL    HW116756   0.091   5.159   4.099  0.8367 -0.3473 -0.4527
 5480SOL    HW216757   0.057   5.189   4.244 -1.3789 -1.7572 -0.6234
 5481SOL     OW16758   1.699   4.578   4.160 -0.1544  0.4021 -0.0365
 5481SOL    HW116759   1.713   4.631   4.239 -1.0316  2.2557 -1.0592
 5481SOL    HW216760   1.617   4.612   4.123 -0.2497 -1.0704 -1.2534
 5482SOL     OW16761   0.621   4.065   0.768 -0.0520  0.7444 -0.1669
 5482SOL    HW116762   0.633   3.977   0.732  2.4309  1.0405 -0.2197
 5482SOL    HW216763   0.633   4.124   0.694  0.8227  1.1967  0.3158
 5483SOL     OW16764   0.784   0.070   2.713  0.1301  0.2598 -0.0177
 5483SOL    HW116765   0.727   0.107   2.646  0.6704  1.3418  0.0944
 5483SOL    HW216766   0.850   0.020   2.664  0.4315  0.9185 -0.3009
 5484SOL     OW16767   3.001   3.886   1.144 -0.4478  0.4859 -0.0412
 5484SOL    HW116768   2.931   3.821   1.153  0.6942 -0.8741 -0.6470
 5484SOL    HW216769   3.044   3.886   1.229 -0.4119  0.4167 -0.0596
 5485SOL     OW16770   1.912   3.283   0.609 -0.0599  0.5143 -0.1565
 5485SOL    HW116771   2.007   3.281   0.596  0.0545  2.0503  0.2681
 5485SOL    HW216772   1.879   3.331   0.533 -0.5801 -0.5320 -0.6098
 5486SOL     OW16773   2.705   0.425   2.043  0.3837  0.2419 -0.2419
 5486SOL    HW116774   2.731   0.376   2.121 -0.7931 -1.3681 -0.8068
 5486SOL    HW216775   2.782   0.476   2.020  2.0360 -2.0678 -0.1403
 5487SOL     OW16776   0.349   0.140   0.728 -0.1936  0.8345  0.2366
 5487SOL    HW116777   0.302   0.067   0.687  1.7863  0.2346 -1.0994
 5487SOL    HW216778   0.290   0.170   0.798 -1.1280 -1.9366  0.7506
 5488SOL     OW16779   5.491   3.470   0.879  0.0285 -0.2302 -0.0789
 5488SOL    HW116780   5.415   3.427   0.839 -1.0025 -0.6454  2.1543
 5488SOL    HW216781   5.546   3.398   0.910  0.4507  0.0815 -0.0935
 5489SOL     OW16782   3.113   3.361   0.826 -0.2859  0.2330 -0.0157
 5489SOL    HW116783   3.120   3.396   0.915 -1.1794 -0.6223  0.4114
 5489SOL    HW216784   3.029   3.315   0.825 -1.0224  1.4884 -1.7590
 5490SOL     OW16785   5.173   1.184   1.993 -0.3785  0.1786 -0.0874
 5490SOL    HW116786   5.222   1.201   2.074 -0.4023 -1.6759  0.3702
 5490SOL    HW216787   5.238   1.148   1.933 -1.2368 -3.7518  1.0132
 5491SOL     OW16788   1.578   5.300   4.320 -0.4704  0.1753  0.1016
 5491SOL    HW116789   1.631   5.221   4.312 -1.1535 -0.2364 -0.5139
 5491SOL    HW216790   1.575   5.317   4.414 -0.1682 -0.4330  0.2293
 5492SOL     OW16791   1.460   1.183   3.160  0.2976 -0.9625  0.0833
 5492SOL    HW116792   1.412   1.108   3.194 -1.0633  0.1373  0.7337
 5492SOL    HW216793   1.528   1.200   3.225  0.0429 -1.1137  0.3938
 5493SOL     OW16794   5.104   1.207   2.407  0.2465 -0.2966  0.4898
 5493SOL    HW116795   5.074   1.297   2.414  1.5415  0.1804  0.2306
 5493SOL    HW216796   5.138   1.186   2.495  2.3798  0.4086 -0.1147
 5494SOL     OW16797   3.947   4.816   2.918  0.3101  0.3554 -0.6072
 5494SOL    HW116798   3.953   4.804   3.013  0.6992 -0.0156 -0.6754
 5494SOL    HW216799   4.030   4.857   2.894  0.1326  0.6236 -0.7628
 5495SOL     OW16800   5.307   3.861   2.696 -0.0224  0.8563  0.4030
 5495SOL    HW116801   5.231   3.912   2.725 -0.4186  0.1039  0.7199
 5495SOL    HW216802   5.313   3.789   2.759  0.4258  0.4180 -0.1252
 5496SOL     OW16803   1.478   1.644   1.386 -0.2496 -0.5962 -0.3149
 5496SOL    HW116804   1.526   1.701   1.326 -1.1731  3.3278  2.3093
 5496SOL    HW216805   1.386   1.666   1.373 -0.5221 -0.1395  1.9487
 5497SOL     OW16806   0.864   1.500   0.431  0.4206  0.3152 -0.2290
 5497SOL    HW116807   0.954   1.516   0.457 -0.1629  2.5238  0.6898
 5497SOL    HW216808   0.847   1.564   0.361 -0.5868  0.3400  0.0168
 5498SOL     OW16809   3.802   4.115   1.269 -0.6467  0.0941  0.2763
 5498SOL    HW116810   3.818   4.093   1.177  0.2196 -0.5281  0.5675
 5498SOL    HW216811   3.832   4.206   1.277  1.2050 -0.4885  0.3937
 5499SOL     OW16812   5.510   2.610   1.801 -0.4371  0.1202  0.1781
 5499SOL    HW116813   5.421   2.607   1.766 -0.7531  2.5118  0.5662
 5499SOL    HW216814   5.500   2.595   1.895 -0.9535  3.3446  0.7721
 5500SOL     OW16815   5.197   1.874   4.729 -0.1576  0.3883 -0.1553
 5500SOL    HW116816   5.128   1.915   4.780  0.4204  0.2940  0.7122
 5500SOL    HW216817   5.243   1.947   4.687 -0.1697  0.5182  0.0580
 5501SOL     OW16818   3.465   0.490   4.984  0.1099 -0.1467  0.2658
 5501SOL    HW116819   3.460   0.400   5.015  1.1727 -0.1507  0.4812
 5501SOL    HW216820   3.451   0.543   5.063 -0.4529 -0.1208  0.1509
 5502SOL     OW16821   1.252   3.724   2.208 -0.8805 -0.1276  0.0932
 5502SOL    HW116822   1.224   3.777   2.283 -3.1510 -0.1622 -0.6666
 5502SOL    HW216823   1.181   3.661   2.195  0.4744 -1.5426 -0.7698
 5503SOL     OW16824   1.595   3.988   5.141  0.3703 -0.4035  0.1328
 5503SOL    HW116825   1.642   4.027   5.215  1.4457  2.2421 -1.7625
 5503SOL    HW216826   1.657   3.925   5.105  1.2231  0.7091 -0.4177
 5504SOL     OW16827   4.747   3.962   3.331  0.3852  0.1210  0.5926
 5504SOL    HW116828   4.833   3.950   3.291 -0.5264 -0.9187 -1.1687
 5504SOL    HW216829   4.695   3.890   3.297 -1.3697  1.0982  1.1077
 5505SOL     OW16830   3.347   1.641   4.308 -0.5914 -0.3322  0.0092
 5505SOL    HW116831   3.386   1.697   4.242 -1.5366  0.1704 -0.1428
 5505SOL    HW216832   3.394   1.661   4.389 -1.3533  1.1902  0.1090
 5506SOL     OW16833   3.571   3.098   0.589  0.1385  0.2150  0.6722
 5506SOL    HW116834   3.485   3.118   0.626 -0.0222  1.0194 -0.0938
 5506SOL    HW216835   3.629   3.094   0.664 -0.2519  1.4302  1.0715
 5507SOL     OW16836   2.486   0.628   2.623  0.1425  0.0005 -0.1488
 5507SOL    HW116837   2.493   0.723   2.613 -1.7189  0.4532  1.8959
 5507SOL    HW216838   2.394   0.609   2.605  0.3904 -1.3768 -0.1006
 5508SOL     OW16839   4.425   3.222   4.959 -0.0078  0.1002 -0.2116
 5508SOL    HW116840   4.386   3.295   4.912  0.6732  0.6332  0.0253
 5508SOL    HW216841   4.427   3.150   4.896  2.5661  1.3145 -1.6835
 5509SOL     OW16842   5.402   2.174   1.031  0.1982  0.3380  0.1753
 5509SOL    HW116843   5.323   2.158   1.084 -0.2484  0.7162 -0.3640
 5509SOL    HW216844   5.399   2.109   0.962  0.0322  0.7327 -0.1967
 5510SOL     OW16845   4.490   4.986   3.430 -0.0356  0.4260  0.0376
 5510SOL    HW116846   4.573   4.984   3.478  0.2031  1.9278 -0.2603
 5510SOL    HW216847   4.457   4.896   3.436  1.0853  0.0465  1.0699
 5511SOL     OW16848   2.454   2.223   4.014 -0.0572 -0.2733 -0.3403
 5511SOL    HW116849   2.536   2.271   4.026 -0.7321  1.2200 -1.3830
 5511SOL    HW216850   2.387   2.291   4.009 -1.2232 -1.4050 -0.6079
 5512SOL     OW16851   1.828   4.606   0.115 -0.5592  0.0991 -0.0592
 5512SOL    HW116852   1.776   4.556   0.052 -3.0955  0.4301  1.6047
 5512SOL    HW216853   1.846   4.689   0.072 -2.0758  0.2482 -0.4461
 5513SOL     OW16854   4.952   0.386   3.709  0.2391  0.4322 -0.0797
 5513SOL    HW116855   4.929   0.477   3.728 -0.4637  0.6153 -1.6726
 5513SOL    HW216856   4.987   0.388   3.620 -0.5490 -0.9693 -0.4442
 5514SOL     OW16857   3.963   0.796   1.776 -0.0317  0.3698  1.0453
 5514SOL    HW116858   3.903   0.724   1.760  0.8444 -0.1986  0.1658
 5514SOL    HW216859   3.910   0.863   1.820 -0.7645 -0.9613  2.2854
 5515SOL     OW16860   1.274   4.077   1.229 -0.0673 -0.3347 -0.0620
 5515SOL    HW116861   1.194   4.033   1.255 -0.1023  0.0167  0.4418
 5515SOL    HW216862   1.248   4.168   1.213  0.2009 -0.2513 -0.0378
 5516SOL     OW16863   0.185   2.996   1.511 -0.3869 -0.5362 -0.5655
 5516SOL    HW116864   0.102   2.991   1.559  0.2705  0.9771  0.7919
 5516SOL    HW216865   0.251   2.968   1.573  0.1767 -1.6624 -1.6214
 5517SOL     OW16866   5.364   2.430   4.076  0.3252 -0.3533  0.4384
 5517SOL    HW116867   5.298   2.404   4.140  0.0021 -1.9261 -0.4713
 5517SOL    HW216868   5.433   2.363   4.084 -0.0900 -1.0619 -1.3534
 5518SOL     OW16869   2.521   2.591   0.415  0.1378 -0.1695 -0.3963
 5518SOL    HW116870   2.609   2.552   0.410  0.5798  0.9402 -1.7438
 5518SOL    HW216871   2.534   2.672   0.464 -0.0239  0.2934 -1.1146
 5519SOL     OW16872   3.726   5.496   5.339 -0.0168 -0.1709  0.2822
 5519SOL    HW116873   3.662   5.427   5.326  0.3942 -0.5470  0.2350
 5519SOL    HW216874   3.676   5.568   5.379 -0.4549 -0.4713  0.2819
 5520SOL     OW16875   1.840   3.577   2.400 -0.7891 -0.0832  0.2712
 5520SOL    HW116876   1.825   3.525   2.479  1.8840 -0.5123  0.5670
 5520SOL    HW216877   1.845   3.668   2.431 -1.6426 -0.0231  0.2772
 5521SOL     OW16878   4.913   3.213   1.346  0.1900 -0.4122 -0.4258
 5521SOL    HW116879   4.925   3.127   1.305 -0.9280 -1.1202  0.6628
 5521SOL    HW216880   4.836   3.250   1.304  0.6805  0.0756 -0.9053
 5522SOL     OW16881   3.992   1.328   4.900  0.4759 -0.3610  0.0194
 5522SOL    HW116882   3.944   1.349   4.981 -0.0512  0.0488 -0.3899
 5522SOL    HW216883   4.073   1.287   4.930  1.0559  1.2693  0.8337
 5523SOL     OW16884   5.236   2.977   2.804  0.3691 -0.2685  0.4856
 5523SOL    HW116885   5.187   3.059   2.799  0.9946  0.0495 -2.2259
 5523SOL    HW216886   5.319   3.001   2.844 -0.8109 -0.4207  3.2493
 5524SOL     OW16887   1.936   0.415   1.031 -0.1099  0.0229  0.5286
 5524SOL    HW116888   2.004   0.349   1.018 -0.8419 -0.5841 -0.3313
 5524SOL    HW216889   1.961   0.459   1.112  0.0497 -1.7792  1.5375
 5525SOL     OW16890   1.256   4.108   3.744  0.0282  0.3392  0.5025
 5525SOL    HW116891   1.163   4.127   3.729 -0.0134  1.2766  1.7379
 5525SOL    HW216892   1.279   4.046   3.676 -1.4388  0.3039 -0.0045
 5526SOL     OW16893   4.554   1.689   3.464 -0.1301  0.0772 -0.5685
 5526SOL    HW116894   4.540   1.604   3.506 -3.2410  0.4880 -0.5672
 5526SOL    HW216895   4.591   1.744   3.533  0.6663 -0.8863 -0.1971
 5527SOL     OW16896   0.157   2.112   0.290  0.4329 -0.0080 -0.2066
 5527SOL    HW116897   0.073   2.118   0.335 -0.9298 -2.8008 -2.1413
 5527SOL    HW216898   0.160   2.189   0.234 -0.2106  0.7569  0.7698
 5528SOL     OW16899   3.475   2.489   4.128 -0.2757  0.2638  0.4676
 5528SOL    HW116900   3.404   2.508   4.190  0.5706 -0.6460  1.7357
 5528SOL    HW216901   3.544   2.449   4.180  0.4770 -0.5294 -1.0665
 5529SOL     OW16902   3.701   4.280   5.161 -0.6677 -0.0784 -0.0125
 5529SOL    HW116903   3.622   4.225   5.164  0.0671 -1.1680  0.0017
 5529SOL    HW216904   3.759   4.242   5.227 -0.7199  1.6774  1.1040
 5530SOL     OW16905   2.894   4.578   1.633 -0.0769  0.0380 -0.2407
 5530SOL    HW116906   2.822   4.586   1.695  0.7128  1.8304  0.5318
 5530SOL    HW216907   2.869   4.633   1.559  0.6374  1.0211  0.2189
 5531SOL     OW16908   4.670   2.463   4.757  0.0938  0.2585 -0.0718
 5531SOL    HW116909   4.577   2.447   4.771  0.5789 -1.0357  2.1627
 5531SOL    HW216910   4.691   2.534   4.818  1.1316 -1.5366  1.7596
 5532SOL     OW16911   1.736   3.029   3.515  0.2602  0.9312 -0.0574
 5532SOL    HW116912   1.644   3.028   3.488 -0.6437  3.7615  2.2643
 5532SOL    HW216913   1.761   3.121   3.510  3.4587  0.1314 -1.7289
 5533SOL     OW16914   2.539   4.379   0.419  0.0860 -0.1292  0.4951
 5533SOL    HW116915   2.553   4.299   0.369  1.6682  0.4429 -0.0471
 5533SOL    HW216916   2.448   4.404   0.399  0.7648  0.3379 -2.6196
 5534SOL     OW16917   1.948   4.851   2.898  0.7453 -0.1929 -0.9206
 5534SOL    HW116918   1.905   4.936   2.888  0.6921 -0.0127  0.6949
 5534SOL    HW216919   1.989   4.836   2.813 -0.9421  0.4775 -1.9077
 5535SOL     OW16920   5.201   0.900   4.120  0.2221  0.3425  0.4610
 5535SOL    HW116921   5.164   0.850   4.192 -2.4556  0.8386 -0.4707
 5535SOL    HW216922   5.282   0.853   4.097  0.2177 -0.8202  2.5858
 5536SOL     OW16923   0.845   2.974   3.037 -0.1443 -0.6332  0.1195
 5536SOL    HW116924   0.811   3.063   3.047  0.7804 -0.3919  1.5081
 5536SOL    HW216925   0.807   2.925   3.111  1.5056 -0.6429  1.0189
 5537SOL     OW16926   1.288   1.167   2.601 -0.5331 -0.6242  0.4162
 5537SOL    HW116927   1.354   1.101   2.624 -0.8095 -0.6875  1.0661
 5537SOL    HW216928   1.326   1.249   2.631 -0.4574 -0.5697  0.1716
 5538SOL     OW16929   1.375   1.595   2.884 -0.7038  0.5969  0.3033
 5538SOL    HW116930   1.380   1.580   2.790  0.1374 -1.5088  0.6142
 5538SOL    HW216931   1.410   1.515   2.923 -0.2914  1.7194  2.4149
 5539SOL     OW16932   0.885   2.760   5.153 -0.2027 -0.0971  0.1834
 5539SOL    HW116933   0.927   2.842   5.177  1.1005 -0.8863  0.7211
 5539SOL    HW216934   0.791   2.776   5.164 -0.1505  1.9046 -1.6094
 5540SOL     OW16935   5.543   3.202   3.241  0.2582 -0.3617 -0.2779
 5540SOL    HW116936   5.495   3.216   3.159  0.0424  1.3323  0.1110
 5540SOL    HW216937   5.615   3.144   3.216  0.6338  0.7106 -1.8313
 5541SOL     OW16938   4.142   1.346   4.015  0.0153  0.1304 -0.7276
 5541SOL    HW116939   4.074   1.362   3.949  0.1691 -0.3070 -0.9954
 5541SOL    HW216940   4.187   1.430   4.022 -1.0167  0.6490 -0.0043
 5542SOL     OW16941   0.560   3.590   3.082 -0.2238 -0.0793 -0.1965
 5542SOL    HW116942   0.553   3.680   3.049  0.5907  0.3483  0.7715
 5542SOL    HW216943   0.490   3.583   3.147 -0.7241 -0.3776 -0.7530
 5543SOL     OW16944   4.701   3.175   1.732 -0.2424 -0.3361  0.0765
 5543SOL    HW116945   4.680   3.137   1.817 -1.2939  1.1376  0.5158
 5543SOL    HW216946   4.747   3.257   1.753 -0.5682  0.0769 -0.7560
 5544SOL     OW16947   5.161   5.108   3.088 -0.7651  0.3672  0.0149
 5544SOL    HW116948   5.202   5.172   3.146  0.4462 -1.4037  1.2144
 5544SOL    HW216949   5.113   5.050   3.146 -3.7695  1.4254 -1.2385
 5545SOL     OW16950   2.649   4.470   2.941 -0.5158 -0.3182 -0.3431
 5545SOL    HW116951   2.623   4.452   2.851 -1.0766 -0.2539 -0.1937
 5545SOL    HW216952   2.722   4.532   2.933 -1.3518  0.6318 -0.7123
 5546SOL     OW16953   0.245   2.481   5.241 -0.7909  0.3763 -0.0880
 5546SOL    HW116954   0.319   2.454   5.186  0.8413  0.0765  2.0967
 5546SOL    HW216955   0.210   2.559   5.199 -0.1465 -0.2934 -1.9470
 5547SOL     OW16956   1.416   1.372   2.695  0.5213 -0.7045 -0.4886
 5547SOL    HW116957   1.411   1.383   2.790  0.8660  0.7313 -0.6192
 5547SOL    HW216958   1.509   1.382   2.675  0.7443 -2.9047 -0.7899
 5548SOL     OW16959   1.978   4.818   1.954 -0.0035 -0.0873  0.1337
 5548SOL    HW116960   1.979   4.795   1.861 -0.1510  2.1024 -0.4496
 5548SOL    HW216961   2.056   4.775   1.989 -0.0580 -1.1231 -0.9377
 5549SOL     OW16962   4.693   2.948   5.067  0.1421  0.3019  0.3494
 5549SOL    HW116963   4.746   2.994   5.003  1.4689 -1.1458  0.3511
 5549SOL    HW216964   4.610   2.996   5.069  0.0134  0.3800 -2.5001
 5550SOL     OW16965   3.389   2.784   4.934 -0.2360 -0.0992  0.6894
 5550SOL    HW116966   3.389   2.840   5.011 -1.8244 -0.3969  0.9315
 5550SOL    HW216967   3.361   2.841   4.862 -3.0202 -0.7541  1.1402
 5551SOL     OW16968   4.098   1.672   1.032  0.0933  0.0738 -0.0758
 5551SOL    HW116969   4.117   1.683   0.938  0.3617 -0.6909 -0.1196
 5551SOL    HW216970   4.154   1.598   1.058 -0.2767  0.0328  0.5966
 5552SOL     OW16971   3.858   2.081   3.101  0.5590  0.9293  0.1931
 5552SOL    HW116972   3.776   2.044   3.069  0.5194  0.3488  0.9516
 5552SOL    HW216973   3.921   2.009   3.092  1.0626  1.4687 -0.6836
 5553SOL     OW16974   0.112   4.503   4.918 -0.4241  0.1255  0.2898
 5553SOL    HW116975   0.042   4.469   4.861 -0.1465  1.1441 -0.6903
 5553SOL    HW216976   0.072   4.506   5.005 -2.2358  2.2886 -0.5095
 5554SOL     OW16977   5.528   1.705   1.539  0.5703  0.2144  0.2152
 5554SOL    HW116978   5.554   1.620   1.574  2.1300 -0.4688 -2.3338
 5554SOL    HW216979   5.444   1.689   1.496  1.8153 -0.6865 -2.0812
 5555SOL     OW16980   1.852   1.036   1.964 -0.2176 -0.4432 -0.1073
 5555SOL    HW116981   1.879   0.949   1.992 -0.1982 -0.6458 -0.7405
 5555SOL    HW216982   1.890   1.046   1.877 -0.4226  0.1012 -0.1369
 5556SOL     OW16983   3.717   4.489   3.463  0.3557 -0.4952  0.2837
 5556SOL    HW116984   3.800   4.469   3.507 -0.6009  1.0290  3.0437
 5556SOL    HW216985   3.686   4.404   3.432  2.4985 -1.2229 -0.0106
 5557SOL     OW16986   0.906   5.064   0.672 -0.8016 -0.0395  0.2422
 5557SOL    HW116987   0.876   4.983   0.714  0.0366  0.0099  0.9765
 5557SOL    HW216988   0.995   5.043   0.641 -1.1665  0.1228 -0.9738
 5558SOL     OW16989   2.084   0.224   2.630  0.2581 -0.2757  0.1301
 5558SOL    HW116990   2.162   0.247   2.579 -0.3547 -0.4721 -0.9196
 5558SOL    HW216991   2.116   0.219   2.720  1.5563 -0.7687 -0.3222
 5559SOL     OW16992   4.846   5.099   0.725 -0.4518  0.5092  0.3553
 5559SOL    HW116993   4.757   5.112   0.759 -0.3226  2.3265  0.1067
 5559SOL    HW216994   4.900   5.088   0.804 -1.0268 -1.9498  0.4797
 5560SOL     OW16995   1.638   4.036   3.953  0.3298 -0.3362  0.5598
 5560SOL    HW116996   1.610   4.126   3.936  2.3490  0.0714 -0.9558
 5560SOL    HW216997   1.575   3.982   3.904 -1.4928  0.1226  2.2656
 5561SOL     OW16998   0.153   2.112   4.185  0.4395 -0.5683  0.0233
 5561SOL    HW116999   0.196   2.194   4.209  0.0900 -0.2319 -0.4774
 5561SOL    HW217000   0.081   2.139   4.129  1.7114 -1.3567 -2.1026
 5562SOL     OW17001   2.409   1.546   1.103 -0.2911  0.2159 -0.6025
 5562SOL    HW117002   2.461   1.474   1.139  0.7789 -0.1080 -2.6619
 5562SOL    HW217003   2.328   1.505   1.074 -0.0124 -0.0225 -1.0497
 5563SOL     OW17004   2.832   4.333   0.440 -0.0022 -0.5889 -0.4700
 5563SOL    HW117005   2.751   4.380   0.419  1.6636  1.6996 -2.4252
 5563SOL    HW217006   2.803   4.248   0.473 -3.1783 -0.2374 -1.9713
 5564SOL     OW17007   2.045   1.651   2.964 -0.1409  0.1092 -0.2611
 5564SOL    HW117008   2.041   1.657   2.869  1.3591  1.0195 -0.3004
 5564SOL    HW217009   2.051   1.557   2.982  0.0997 -0.0453 -1.1045
 5565SOL     OW17010   0.292   4.229   2.517 -0.1273 -0.2203  0.0882
 5565SOL    HW117011   0.225   4.206   2.453  0.6586  0.8645 -1.1841
 5565SOL    HW217012   0.359   4.274   2.466  1.5581 -1.2198  1.3295
 5566SOL     OW17013   3.578   2.041   2.574  0.3711 -0.1572 -0.0408
 5566SOL    HW117014   3.621   2.124   2.551  0.5458 -0.3817 -0.5457
 5566SOL    HW217015   3.526   2.019   2.497 -0.3231 -0.1082  0.4076
 5567SOL     OW17016   0.096   3.285   0.958  0.2278  0.2496 -0.1853
 5567SOL    HW117017   0.083   3.249   1.046 -1.2593  1.3962  0.0994
 5567SOL    HW217018   0.191   3.283   0.946  0.4425 -0.2526  1.2958
 5568SOL     OW17019   0.312   1.277   0.382  0.1782 -0.0836  0.5211
 5568SOL    HW117020   0.300   1.258   0.475  0.8137 -1.4571  0.3499
 5568SOL    HW217021   0.246   1.342   0.362 -0.4688 -0.3270  1.7685
 5569SOL     OW17022   4.861   1.689   1.315 -0.1584 -0.0217 -0.0243
 5569SOL    HW117023   4.946   1.731   1.301 -1.1162  2.6553  1.3543
 5569SOL    HW217024   4.849   1.692   1.410 -2.2835  0.8561 -0.2652
 5570SOL     OW17025   5.559   0.035   3.844 -0.5437 -0.0332  0.2813
 5570SOL    HW117026   5.623   0.005   3.909 -1.3367 -2.5329 -0.0076
 5570SOL    HW217027   5.605   0.029   3.761  0.2521  2.5385  0.4490
 5571SOL     OW17028   5.475   5.085   3.676 -0.3634  0.1410 -0.0340
 5571SOL    HW117029   5.560   5.114   3.709 -1.2356  1.2480  1.3441
 5571SOL    HW217030   5.495   5.044   3.592  1.5825 -0.0774  0.4858
 5572SOL     OW17031   1.131   4.442   4.083 -0.2644  0.4646 -1.0147
 5572SOL    HW117032   1.170   4.404   4.005  0.9271  0.9774 -0.6899
 5572SOL    HW217033   1.202   4.444   4.147 -1.0033  0.8021 -0.1817
 5573SOL     OW17034   4.407   3.715   3.740  0.0063 -0.3896 -0.2316
 5573SOL    HW117035   4.502   3.704   3.747 -0.1033 -0.7143  1.0502
 5573SOL    HW217036   4.376   3.628   3.716  0.0643 -0.1655 -1.1464
 5574SOL     OW17037   3.445   0.033   3.449  0.1955 -0.1737  0.2463
 5574SOL    HW117038   3.429   0.002   3.538 -2.3072 -0.4953 -0.2474
 5574SOL    HW217039   3.494  -0.038   3.407 -1.1806 -1.3733  0.5638
 5575SOL     OW17040   2.015   3.999   3.065 -0.2947  0.3075  0.1350
 5575SOL    HW117041   1.973   4.003   3.151  0.7890  0.0819  0.6976
 5575SOL    HW217042   2.073   4.075   3.064 -1.4467  1.2066 -1.0421
 5576SOL     OW17043   5.244   3.558   3.455  0.4257  0.1102  0.3541
 5576SOL    HW117044   5.159   3.590   3.424  0.0717  0.1659  1.3418
 5576SOL    HW217045   5.302   3.565   3.379 -0.6564 -0.7339 -0.5628
 5577NA      NA17046   2.157   1.312   0.386  0.2644 -0.3300 -0.2200
 5578NA      NA17047   5.205   3.817   4.082  0.0733 -0.6187  0.2507
 5579NA      NA17048   0.580   5.096   4.647  0.0912  0.1890 -0.3455
 5580NA      NA17049   0.218   5.265   2.608  0.2491 -0.0218  0.1172
 5581NA      NA17050   1.234   1.375   4.640  0.1664  0.2367  0.3643
 5582NA      NA17051   1.975   5.428   0.208 -0.2029 -0.2981  0.2049
 5583NA      NA17052   0.732   5.041   4.377 -0.1038  0.2531 -0.3687
 5584NA      NA17053   1.936   3.420   2.271  0.6205 -0.1643 -0.6369
 5585NA      NA17054   1.024   5.334   5.254  0.0707  0.2985  0.1373
 5586NA      NA17055   4.794   0.968   4.534  0.2387  0.0772 -0.4661
 5587NA      NA17056   0.104   3.136   4.099  0.0190  0.0872 -0.0849
 5588NA      NA17057   1.474   1.396   4.868  0.4704  0.1036 -0.0635
 5589NA      NA17058   1.937   5.021   2.011  0.1828  0.7510  0.2170
 5590NA      NA17059   1.253   1.178   4.863 -0.0462  0.1062 -0.3210
 5591NA      NA17060   0.973   4.668   5.307  0.5849 -0.2651 -0.2785
 5592NA      NA17061   0.696   1.684   4.487  0.1261  0.2935  0.1883
 5593NA      NA17062   5.351   3.153   3.369  0.2580 -0.0725  0.0343
 5594NA      NA17063   0.924   3.260   4.339 -0.4917 -0.0032 -0.3775
 5595NA      NA17064   2.390   2.899   2.386  0.2963 -0.5739 -0.3318
 5596NA      NA17065   1.217   0.565   5.466  0.0677  0.1926 -0.1579
 5597NA      NA17066   1.175   0.339   5.290  0.0494  0.2495 -0.0945
 5598NA      NA17067   3.088   4.502   4.116 -0.2015  0.0155 -0.3770
 5599NA      NA17068   2.199   0.890   4.564 -0.0125 -0.3260  0.3039
 5600NA      NA17069   0.653   0.361   5.012 -0.1533  0.1201 -0.2709
 5601NA      NA17070   2.755   1.866   5.348  0.3925 -0.0909  0.3658
 5602NA      NA17071   0.973   0.064   5.301  0.1263  0.1842 -0.0554
 5603NA      NA17072   0.939   0.303   5.008  0.4883 -0.1416 -0.0197
 5604NA      NA17073   3.610   3.248   2.386  0.3612  0.2032 -0.1058
 5605NA      NA17074   0.433   1.685   4.622  0.0818  0.3731 -0.1645
 5606NA      NA17075   3.558   5.441   4.394 -0.5853 -0.0828  0.6882
 5607NA      NA17076   1.401   5.339   2.565 -0.2211  0.2852  0.1084
 5608NA      NA17077   1.262   1.334   5.109 -0.0931 -0.2471 -0.1953
 5609CL      CL17078   1.971   4.462   5.266  0.0355 -0.2898 -0.1805
 5610CL      CL17079   2.523   4.873   0.251  0.3412  0.1624 -0.1876
 5611CL      CL17080   2.040   4.751   2.614 -0.0788  0.2622 -0.1780
 5612CL      CL17081   2.973   2.871   1.251 -0.0815 -0.0829  0.0195
 5613CL      CL17082   5.487   4.980   3.380  0.0809  0.2922 -0.3237
 5614CL      CL17083   0.435   3.301   4.917  0.0522 -0.0734  0.1688
 5615CL      CL17084   1.309   2.119   0.287  0.0063  0.4045 -0.0477
 5616CL      CL17085   3.117   4.291   3.024 -0.1693 -0.1265 -0.2986
 5617CL      CL17086   0.416   0.144   1.723  0.1852 -0.2196  0.2867
 5618CL      CL17087   1.348   0.983   3.708 -0.0735  0.0641  0.0010
 5619CL      CL17088   4.775   2.509   5.204 -0.2142 -0.1127  0.2043
 5620CL      CL17089   5.539   5.560   4.417  0.3371 -0.2222 -0.2305
 5621CL      CL17090   5.368   4.140   0.837 -0.3338 -0.3889  0.0736
 5622CL      CL17091   3.286   0.807   3.327 -0.0737 -0.1365 -0.2139
 5623CL      CL17092   4.409   3.258   3.789  0.2357 -0.0399 -0.2513
 5624CL      CL17093   4.245   1.450   1.174 -0.5731 -0.2859  0.2090
   5.56103   5.56103   5.56103
